/home/tahminaafroz
cn007.cluster.local
tahminaafroz
Sat Nov 22 10:21:24 CST 2025
 Entering Gaussian System, Link 0=g16
 Initial command:
 /home/apps/g16/l1.exe "/tmp/Clpy2n2-def2tzvp-2/Gau-839469.inp" -scrdir="/tmp/Clpy2n2-def2tzvp-2/"
 Entering Link 1 = /home/apps/g16/l1.exe PID=    839477.
  
 Copyright (c) 1988-2019, Gaussian, Inc.  All Rights Reserved.
  
 This is part of the Gaussian(R) 16 program.  It is based on
 the Gaussian(R) 09 system (copyright 2009, Gaussian, Inc.),
 the Gaussian(R) 03 system (copyright 2003, Gaussian, Inc.),
 the Gaussian(R) 98 system (copyright 1998, Gaussian, Inc.),
 the Gaussian(R) 94 system (copyright 1995, Gaussian, Inc.),
 the Gaussian 92(TM) system (copyright 1992, Gaussian, Inc.),
 the Gaussian 90(TM) system (copyright 1990, Gaussian, Inc.),
 the Gaussian 88(TM) system (copyright 1988, Gaussian, Inc.),
 the Gaussian 86(TM) system (copyright 1986, Carnegie Mellon
 University), and the Gaussian 82(TM) system (copyright 1983,
 Carnegie Mellon University). Gaussian is a federally registered
 trademark of Gaussian, Inc.
  
 This software contains proprietary and confidential information,
 including trade secrets, belonging to Gaussian, Inc.
  
 This software is provided under written license and may be
 used, copied, transmitted, or stored only in accord with that
 written license.
  
 The following legend is applicable only to US Government
 contracts under FAR:
  
                    RESTRICTED RIGHTS LEGEND
  
 Use, reproduction and disclosure by the US Government is
 subject to restrictions as set forth in subparagraphs (a)
 and (c) of the Commercial Computer Software - Restricted
 Rights clause in FAR 52.227-19.
  
 Gaussian, Inc.
 340 Quinnipiac St., Bldg. 40, Wallingford CT 06492
  
  
 ---------------------------------------------------------------
 Warning -- This program may not be used in any manner that
 competes with the business of Gaussian, Inc. or will provide
 assistance to any competitor of Gaussian, Inc.  The licensee
 of this program is prohibited from giving any competitor of
 Gaussian, Inc. access to this program.  By using this program,
 the user acknowledges that Gaussian, Inc. is engaged in the
 business of creating and licensing software in the field of
 computational chemistry and represents and warrants to the
 licensee that it is not a competitor of Gaussian, Inc. and that
 it will not use this program in any manner prohibited above.
 ---------------------------------------------------------------
  

 Cite this work as:
 Gaussian 16, Revision C.01,
 M. J. Frisch, G. W. Trucks, H. B. Schlegel, G. E. Scuseria, 
 M. A. Robb, J. R. Cheeseman, G. Scalmani, V. Barone, 
 G. A. Petersson, H. Nakatsuji, X. Li, M. Caricato, A. V. Marenich, 
 J. Bloino, B. G. Janesko, R. Gomperts, B. Mennucci, H. P. Hratchian, 
 J. V. Ortiz, A. F. Izmaylov, J. L. Sonnenberg, D. Williams-Young, 
 F. Ding, F. Lipparini, F. Egidi, J. Goings, B. Peng, A. Petrone, 
 T. Henderson, D. Ranasinghe, V. G. Zakrzewski, J. Gao, N. Rega, 
 G. Zheng, W. Liang, M. Hada, M. Ehara, K. Toyota, R. Fukuda, 
 J. Hasegawa, M. Ishida, T. Nakajima, Y. Honda, O. Kitao, H. Nakai, 
 T. Vreven, K. Throssell, J. A. Montgomery, Jr., J. E. Peralta, 
 F. Ogliaro, M. J. Bearpark, J. J. Heyd, E. N. Brothers, K. N. Kudin, 
 V. N. Staroverov, T. A. Keith, R. Kobayashi, J. Normand, 
 K. Raghavachari, A. P. Rendell, J. C. Burant, S. S. Iyengar, 
 J. Tomasi, M. Cossi, J. M. Millam, M. Klene, C. Adamo, R. Cammi, 
 J. W. Ochterski, R. L. Martin, K. Morokuma, O. Farkas, 
 J. B. Foresman, and D. J. Fox, Gaussian, Inc., Wallingford CT, 2019.
 
 ******************************************
 Gaussian 16:  AS64L-G16RevC.01  3-Jul-2019
                22-Nov-2025 
 ******************************************
 %oldchk= Clpy2n2-def2tzvp.chk
 %nprocshared=32
 Will use up to   32 processors via shared memory.
 %mem=20GB
 %chk=Clpy2n2-def2tzvp-2.chk
 Copying data from "Clpy2n2-def2tzvp.chk" to current chk file "Clpy2n2-def2tzvp-2.chk"
 IOpt=  2 FromEx=T IUOpen= 4 IOptOp= 5 NList=   0 IFRang= 0 IUIn= 4 IUOut= 2.
 ----------------------------------------------------------------------
 #p opt=(calcfc,tight) freq nosymm guess=read scf=(qc,fermi,xqc) def2tz
 vp gfprint int=ultrafine m062x
 ----------------------------------------------------------------------
 1/7=10,10=4,18=20,19=15,26=4,38=1/1,3;
 2/9=110,12=2,15=1,17=6,18=5,40=1/2;
 3/5=44,7=101,11=2,24=100,25=1,30=1,71=2,74=-55,75=-5,116=-2,140=1/1,2,3;
 4/5=1/1;
 5/5=2,22=13,38=6/2;
 8/6=4,10=90,11=11/1;
 11/6=1,8=1,9=11,15=111,16=1,31=1/1,2,10;
 10/6=1,13=1,31=1/2;
 6/7=2,8=2,9=2,10=2,28=1/1;
 7/10=1,25=1,30=1/1,2,3,16;
 1/7=10,10=4,18=20,19=15,26=4/3(2);
 2/9=110,15=1/2;
 99//99;
 2/9=110,15=1/2;
 3/5=44,7=101,11=2,25=1,30=1,71=1,74=-55,75=-5/1,2,3;
 4/5=5,16=3,69=1/1;
 5/5=2,22=13,38=5/2;
 7/30=1/1,2,3,16;
 1/7=10,18=20,19=15,26=4/3(-5);
 2/9=110,15=1/2;
 6/7=2,8=2,9=2,10=2,19=2,28=1/1;
 99/9=1/99;
 Leave Link    1 at Sat Nov 22 10:21:25 2025, MaxMem=  2684354560 cpu:               0.1 elap:               0.4
 (Enter /home/apps/g16/l101.exe)
 ------------------
 Clpy2n2-def2tzvp-2
 ------------------
 Symbolic Z-matrix:
 Charge =  0 Multiplicity = 1
 N                     3.01977   20.44566   12.54404 
 N                     0.92621   19.74303   10.6014 
 H                     0.28662   18.98632   10.41625 
 C                     4.15571   21.12376   12.64769 
 C                     1.89639   21.12171   12.33955 
 C                     0.69269   20.31088   11.9196 
 H                     0.55952   19.48552   12.61929 
 H                    -0.20306   20.95032   11.95517 
 C                     0.97124   20.67183   9.49416 
 H                     0.17914   21.43664   9.54657 
 H                     0.79981   20.10292   8.57683 
 C                     4.20855   22.51379   12.66153 
 H                     5.15159   23.03839   12.7335 
 C                     1.83932   22.51169   12.33838 
 H                     0.91046   23.03452   12.15514 
 C                     3.02093   23.20646   12.51725 
 N                     3.40869   20.75806   9.68977 
 N                     5.55668   19.74489   11.23388 
 H                     6.22183   18.98759   11.22759 
 C                     2.3021    21.3987   9.33646 
 C                     4.56942   21.3988   9.64542 
 C                     5.80947   20.67169   10.15325 
 H                     6.21873   20.10097   9.31579 
 H                     6.55966   21.43618   10.41375 
 C                     5.42924   20.31495   12.5655 
 H                     6.282     20.95633   12.83749 
 H                     5.37243   19.49081   13.27688 
 C                     2.31553   22.69848   8.83671 
 H                     1.40198   23.20772   8.56125 
 C                     4.6901    22.69849   9.16041 
 H                     5.64403   23.20768   9.13926 
 C                     3.53864   23.33482   8.73575 
 Cl                    3.02555   24.93421   12.47317 
 Cl                    3.62163   24.95169   8.12626 
 
 ITRead=  0  0  0  0  0  0  0  0  0  0  0  0  0  0  0  0  0  0  0  0
 ITRead=  0  0  0  0  0  0  0  0  0  0  0  0  0  0
 MicOpt= -1 -1 -1 -1 -1 -1 -1 -1 -1 -1 -1 -1 -1 -1 -1 -1 -1 -1 -1 -1
 MicOpt= -1 -1 -1 -1 -1 -1 -1 -1 -1 -1 -1 -1 -1 -1
 NAtoms=     34 NQM=       34 NQMF=       0 NMMI=      0 NMMIF=      0
                NMic=       0 NMicF=      0.
                    Isotopes and Nuclear Properties:
 (Nuclear quadrupole moments (NQMom) in fm**2, nuclear magnetic moments (NMagM)
  in nuclear magnetons)

  Atom         1           2           3           4           5           6           7           8           9          10
 IAtWgt=          14          14           1          12          12          12           1           1          12           1
 AtmWgt=  14.0030740  14.0030740   1.0078250  12.0000000  12.0000000  12.0000000   1.0078250   1.0078250  12.0000000   1.0078250
 NucSpn=           2           2           1           0           0           0           1           1           0           1
 AtZEff=   0.0000000   0.0000000   0.0000000   0.0000000   0.0000000   0.0000000   0.0000000   0.0000000   0.0000000   0.0000000
 NQMom=    2.0440000   2.0440000   0.0000000   0.0000000   0.0000000   0.0000000   0.0000000   0.0000000   0.0000000   0.0000000
 NMagM=    0.4037610   0.4037610   2.7928460   0.0000000   0.0000000   0.0000000   2.7928460   2.7928460   0.0000000   2.7928460
 AtZNuc=   7.0000000   7.0000000   1.0000000   6.0000000   6.0000000   6.0000000   1.0000000   1.0000000   6.0000000   1.0000000

  Atom        11          12          13          14          15          16          17          18          19          20
 IAtWgt=           1          12           1          12           1          12          14          14           1          12
 AtmWgt=   1.0078250  12.0000000   1.0078250  12.0000000   1.0078250  12.0000000  14.0030740  14.0030740   1.0078250  12.0000000
 NucSpn=           1           0           1           0           1           0           2           2           1           0
 AtZEff=   0.0000000   0.0000000   0.0000000   0.0000000   0.0000000   0.0000000   0.0000000   0.0000000   0.0000000   0.0000000
 NQMom=    0.0000000   0.0000000   0.0000000   0.0000000   0.0000000   0.0000000   2.0440000   2.0440000   0.0000000   0.0000000
 NMagM=    2.7928460   0.0000000   2.7928460   0.0000000   2.7928460   0.0000000   0.4037610   0.4037610   2.7928460   0.0000000
 AtZNuc=   1.0000000   6.0000000   1.0000000   6.0000000   1.0000000   6.0000000   7.0000000   7.0000000   1.0000000   6.0000000

  Atom        21          22          23          24          25          26          27          28          29          30
 IAtWgt=          12          12           1           1          12           1           1          12           1          12
 AtmWgt=  12.0000000  12.0000000   1.0078250   1.0078250  12.0000000   1.0078250   1.0078250  12.0000000   1.0078250  12.0000000
 NucSpn=           0           0           1           1           0           1           1           0           1           0
 AtZEff=   0.0000000   0.0000000   0.0000000   0.0000000   0.0000000   0.0000000   0.0000000   0.0000000   0.0000000   0.0000000
 NQMom=    0.0000000   0.0000000   0.0000000   0.0000000   0.0000000   0.0000000   0.0000000   0.0000000   0.0000000   0.0000000
 NMagM=    0.0000000   0.0000000   2.7928460   2.7928460   0.0000000   2.7928460   2.7928460   0.0000000   2.7928460   0.0000000
 AtZNuc=   6.0000000   6.0000000   1.0000000   1.0000000   6.0000000   1.0000000   1.0000000   6.0000000   1.0000000   6.0000000

  Atom        31          32          33          34
 IAtWgt=           1          12          35          35
 AtmWgt=   1.0078250  12.0000000  34.9688527  34.9688527
 NucSpn=           1           0           3           3
 AtZEff=   0.0000000   0.0000000   0.0000000   0.0000000
 NQMom=    0.0000000   0.0000000  -8.1650000  -8.1650000
 NMagM=    2.7928460   0.0000000   0.8218740   0.8218740
 AtZNuc=   1.0000000   6.0000000  17.0000000  17.0000000
 Leave Link  101 at Sat Nov 22 10:21:25 2025, MaxMem=  2684354560 cpu:               0.2 elap:               0.1
 (Enter /home/apps/g16/l103.exe)

 GradGradGradGradGradGradGradGradGradGradGradGradGradGradGradGradGradGrad
 Berny optimization.
 Initialization pass.
                           ----------------------------
                           !    Initial Parameters    !
                           ! (Angstroms and Degrees)  !
 --------------------------                            --------------------------
 ! Name  Definition              Value          Derivative Info.                !
 --------------------------------------------------------------------------------
 ! R1    R(1,4)                  1.327          calculate D2E/DX2 analytically  !
 ! R2    R(1,5)                  1.327          calculate D2E/DX2 analytically  !
 ! R3    R(2,3)                  1.008          calculate D2E/DX2 analytically  !
 ! R4    R(2,6)                  1.4542         calculate D2E/DX2 analytically  !
 ! R5    R(2,9)                  1.4459         calculate D2E/DX2 analytically  !
 ! R6    R(4,12)                 1.3911         calculate D2E/DX2 analytically  !
 ! R7    R(4,25)                 1.5109         calculate D2E/DX2 analytically  !
 ! R8    R(5,6)                  1.5109         calculate D2E/DX2 analytically  !
 ! R9    R(5,14)                 1.3912         calculate D2E/DX2 analytically  !
 ! R10   R(6,7)                  1.0902         calculate D2E/DX2 analytically  !
 ! R11   R(6,8)                  1.1011         calculate D2E/DX2 analytically  !
 ! R12   R(9,10)                 1.1023         calculate D2E/DX2 analytically  !
 ! R13   R(9,11)                 1.0929         calculate D2E/DX2 analytically  !
 ! R14   R(9,20)                 1.5246         calculate D2E/DX2 analytically  !
 ! R15   R(12,13)                1.0815         calculate D2E/DX2 analytically  !
 ! R16   R(12,16)                1.3824         calculate D2E/DX2 analytically  !
 ! R17   R(14,15)                1.0815         calculate D2E/DX2 analytically  !
 ! R18   R(14,16)                1.3824         calculate D2E/DX2 analytically  !
 ! R19   R(16,33)                1.7283         calculate D2E/DX2 analytically  !
 ! R20   R(17,20)                1.3266         calculate D2E/DX2 analytically  !
 ! R21   R(17,21)                1.3266         calculate D2E/DX2 analytically  !
 ! R22   R(18,19)                1.0079         calculate D2E/DX2 analytically  !
 ! R23   R(18,22)                1.4459         calculate D2E/DX2 analytically  !
 ! R24   R(18,25)                1.4541         calculate D2E/DX2 analytically  !
 ! R25   R(20,28)                1.3926         calculate D2E/DX2 analytically  !
 ! R26   R(21,22)                1.5246         calculate D2E/DX2 analytically  !
 ! R27   R(21,30)                1.3925         calculate D2E/DX2 analytically  !
 ! R28   R(22,23)                1.0929         calculate D2E/DX2 analytically  !
 ! R29   R(22,24)                1.1023         calculate D2E/DX2 analytically  !
 ! R30   R(25,26)                1.1012         calculate D2E/DX2 analytically  !
 ! R31   R(25,27)                1.0902         calculate D2E/DX2 analytically  !
 ! R32   R(28,29)                1.0816         calculate D2E/DX2 analytically  !
 ! R33   R(28,32)                1.3824         calculate D2E/DX2 analytically  !
 ! R34   R(30,31)                1.0815         calculate D2E/DX2 analytically  !
 ! R35   R(30,32)                1.3824         calculate D2E/DX2 analytically  !
 ! R36   R(32,34)                1.7299         calculate D2E/DX2 analytically  !
 ! A1    A(4,1,5)              118.4496         calculate D2E/DX2 analytically  !
 ! A2    A(3,2,6)              110.9633         calculate D2E/DX2 analytically  !
 ! A3    A(3,2,9)              111.1827         calculate D2E/DX2 analytically  !
 ! A4    A(6,2,9)              116.6363         calculate D2E/DX2 analytically  !
 ! A5    A(1,4,12)             122.9495         calculate D2E/DX2 analytically  !
 ! A6    A(1,4,25)             116.3427         calculate D2E/DX2 analytically  !
 ! A7    A(12,4,25)            120.2273         calculate D2E/DX2 analytically  !
 ! A8    A(1,5,6)              116.3519         calculate D2E/DX2 analytically  !
 ! A9    A(1,5,14)             122.9495         calculate D2E/DX2 analytically  !
 ! A10   A(6,5,14)             120.2187         calculate D2E/DX2 analytically  !
 ! A11   A(2,6,5)              109.4868         calculate D2E/DX2 analytically  !
 ! A12   A(2,6,7)              107.8045         calculate D2E/DX2 analytically  !
 ! A13   A(2,6,8)              112.748          calculate D2E/DX2 analytically  !
 ! A14   A(5,6,7)              108.9794         calculate D2E/DX2 analytically  !
 ! A15   A(5,6,8)              109.1152         calculate D2E/DX2 analytically  !
 ! A16   A(7,6,8)              108.635          calculate D2E/DX2 analytically  !
 ! A17   A(2,9,10)             112.7614         calculate D2E/DX2 analytically  !
 ! A18   A(2,9,11)             107.6659         calculate D2E/DX2 analytically  !
 ! A19   A(2,9,20)             114.371          calculate D2E/DX2 analytically  !
 ! A20   A(10,9,11)            106.7587         calculate D2E/DX2 analytically  !
 ! A21   A(10,9,20)            107.5417         calculate D2E/DX2 analytically  !
 ! A22   A(11,9,20)            107.3544         calculate D2E/DX2 analytically  !
 ! A23   A(4,12,13)            121.229          calculate D2E/DX2 analytically  !
 ! A24   A(4,12,16)            117.8403         calculate D2E/DX2 analytically  !
 ! A25   A(13,12,16)           120.8631         calculate D2E/DX2 analytically  !
 ! A26   A(5,14,15)            121.2237         calculate D2E/DX2 analytically  !
 ! A27   A(5,14,16)            117.8396         calculate D2E/DX2 analytically  !
 ! A28   A(15,14,16)           120.8694         calculate D2E/DX2 analytically  !
 ! A29   A(12,16,14)           119.7364         calculate D2E/DX2 analytically  !
 ! A30   A(12,16,33)           120.0838         calculate D2E/DX2 analytically  !
 ! A31   A(14,16,33)           120.0937         calculate D2E/DX2 analytically  !
 ! A32   A(20,17,21)           119.1916         calculate D2E/DX2 analytically  !
 ! A33   A(19,18,22)           111.1953         calculate D2E/DX2 analytically  !
 ! A34   A(19,18,25)           110.9834         calculate D2E/DX2 analytically  !
 ! A35   A(22,18,25)           116.6444         calculate D2E/DX2 analytically  !
 ! A36   A(9,20,17)            118.0593         calculate D2E/DX2 analytically  !
 ! A37   A(9,20,28)            119.3744         calculate D2E/DX2 analytically  !
 ! A38   A(17,20,28)           122.566          calculate D2E/DX2 analytically  !
 ! A39   A(17,21,22)           118.0473         calculate D2E/DX2 analytically  !
 ! A40   A(17,21,30)           122.5673         calculate D2E/DX2 analytically  !
 ! A41   A(22,21,30)           119.385          calculate D2E/DX2 analytically  !
 ! A42   A(18,22,21)           114.3588         calculate D2E/DX2 analytically  !
 ! A43   A(18,22,23)           107.6632         calculate D2E/DX2 analytically  !
 ! A44   A(18,22,24)           112.7622         calculate D2E/DX2 analytically  !
 ! A45   A(21,22,23)           107.3604         calculate D2E/DX2 analytically  !
 ! A46   A(21,22,24)           107.548          calculate D2E/DX2 analytically  !
 ! A47   A(23,22,24)           106.7618         calculate D2E/DX2 analytically  !
 ! A48   A(4,25,18)            109.4848         calculate D2E/DX2 analytically  !
 ! A49   A(4,25,26)            109.1184         calculate D2E/DX2 analytically  !
 ! A50   A(4,25,27)            108.9818         calculate D2E/DX2 analytically  !
 ! A51   A(18,25,26)           112.7476         calculate D2E/DX2 analytically  !
 ! A52   A(18,25,27)           107.8038         calculate D2E/DX2 analytically  !
 ! A53   A(26,25,27)           108.6324         calculate D2E/DX2 analytically  !
 ! A54   A(20,28,29)           121.5141         calculate D2E/DX2 analytically  !
 ! A55   A(20,28,32)           117.6687         calculate D2E/DX2 analytically  !
 ! A56   A(29,28,32)           120.7959         calculate D2E/DX2 analytically  !
 ! A57   A(21,30,31)           121.5124         calculate D2E/DX2 analytically  !
 ! A58   A(21,30,32)           117.6735         calculate D2E/DX2 analytically  !
 ! A59   A(31,30,32)           120.7934         calculate D2E/DX2 analytically  !
 ! A60   A(28,32,30)           120.1737         calculate D2E/DX2 analytically  !
 ! A61   A(28,32,34)           119.8941         calculate D2E/DX2 analytically  !
 ! A62   A(30,32,34)           119.8997         calculate D2E/DX2 analytically  !
 ! D1    D(5,1,4,12)             5.4346         calculate D2E/DX2 analytically  !
 ! D2    D(5,1,4,25)          -166.6153         calculate D2E/DX2 analytically  !
 ! D3    D(4,1,5,6)            166.6195         calculate D2E/DX2 analytically  !
 ! D4    D(4,1,5,14)            -5.4338         calculate D2E/DX2 analytically  !
 ! D5    D(3,2,6,5)            162.6248         calculate D2E/DX2 analytically  !
 ! D6    D(3,2,6,7)             44.2012         calculate D2E/DX2 analytically  !
 ! D7    D(3,2,6,8)            -75.7046         calculate D2E/DX2 analytically  !
 ! D8    D(9,2,6,5)            -68.6886         calculate D2E/DX2 analytically  !
 ! D9    D(9,2,6,7)            172.8878         calculate D2E/DX2 analytically  !
 ! D10   D(9,2,6,8)             52.9819         calculate D2E/DX2 analytically  !
 ! D11   D(3,2,9,10)            85.5863         calculate D2E/DX2 analytically  !
 ! D12   D(3,2,9,11)           -31.9166         calculate D2E/DX2 analytically  !
 ! D13   D(3,2,9,20)          -151.1222         calculate D2E/DX2 analytically  !
 ! D14   D(6,2,9,10)           -42.9944         calculate D2E/DX2 analytically  !
 ! D15   D(6,2,9,11)          -160.4974         calculate D2E/DX2 analytically  !
 ! D16   D(6,2,9,20)            80.2971         calculate D2E/DX2 analytically  !
 ! D17   D(1,4,12,13)         -179.1459         calculate D2E/DX2 analytically  !
 ! D18   D(1,4,12,16)           -2.1121         calculate D2E/DX2 analytically  !
 ! D19   D(25,4,12,13)          -7.3936         calculate D2E/DX2 analytically  !
 ! D20   D(25,4,12,16)         169.6403         calculate D2E/DX2 analytically  !
 ! D21   D(1,4,25,18)           65.9086         calculate D2E/DX2 analytically  !
 ! D22   D(1,4,25,26)         -170.2597         calculate D2E/DX2 analytically  !
 ! D23   D(1,4,25,27)          -51.7814         calculate D2E/DX2 analytically  !
 ! D24   D(12,4,25,18)        -106.3717         calculate D2E/DX2 analytically  !
 ! D25   D(12,4,25,26)          17.46           calculate D2E/DX2 analytically  !
 ! D26   D(12,4,25,27)         135.9382         calculate D2E/DX2 analytically  !
 ! D27   D(1,5,6,2)            -66.0236         calculate D2E/DX2 analytically  !
 ! D28   D(1,5,6,7)             51.667          calculate D2E/DX2 analytically  !
 ! D29   D(1,5,6,8)            170.1452         calculate D2E/DX2 analytically  !
 ! D30   D(14,5,6,2)           106.2607         calculate D2E/DX2 analytically  !
 ! D31   D(14,5,6,7)          -136.0487         calculate D2E/DX2 analytically  !
 ! D32   D(14,5,6,8)           -17.5705         calculate D2E/DX2 analytically  !
 ! D33   D(1,5,14,15)          179.1528         calculate D2E/DX2 analytically  !
 ! D34   D(1,5,14,16)            2.1105         calculate D2E/DX2 analytically  !
 ! D35   D(6,5,14,15)            7.3955         calculate D2E/DX2 analytically  !
 ! D36   D(6,5,14,16)         -169.6468         calculate D2E/DX2 analytically  !
 ! D37   D(2,9,20,17)           31.919          calculate D2E/DX2 analytically  !
 ! D38   D(2,9,20,28)         -147.8739         calculate D2E/DX2 analytically  !
 ! D39   D(10,9,20,17)         157.9805         calculate D2E/DX2 analytically  !
 ! D40   D(10,9,20,28)         -21.8124         calculate D2E/DX2 analytically  !
 ! D41   D(11,9,20,17)         -87.4618         calculate D2E/DX2 analytically  !
 ! D42   D(11,9,20,28)          92.7453         calculate D2E/DX2 analytically  !
 ! D43   D(4,12,16,14)          -1.3301         calculate D2E/DX2 analytically  !
 ! D44   D(4,12,16,33)        -177.9589         calculate D2E/DX2 analytically  !
 ! D45   D(13,12,16,14)        175.7152         calculate D2E/DX2 analytically  !
 ! D46   D(13,12,16,33)         -0.9136         calculate D2E/DX2 analytically  !
 ! D47   D(5,14,16,12)           1.3308         calculate D2E/DX2 analytically  !
 ! D48   D(5,14,16,33)         177.9593         calculate D2E/DX2 analytically  !
 ! D49   D(15,14,16,12)       -175.7224         calculate D2E/DX2 analytically  !
 ! D50   D(15,14,16,33)          0.9061         calculate D2E/DX2 analytically  !
 ! D51   D(21,17,20,9)        -175.5944         calculate D2E/DX2 analytically  !
 ! D52   D(21,17,20,28)          4.1915         calculate D2E/DX2 analytically  !
 ! D53   D(20,17,21,22)        175.6068         calculate D2E/DX2 analytically  !
 ! D54   D(20,17,21,30)         -4.187          calculate D2E/DX2 analytically  !
 ! D55   D(19,18,22,21)        151.1419         calculate D2E/DX2 analytically  !
 ! D56   D(19,18,22,23)         31.9382         calculate D2E/DX2 analytically  !
 ! D57   D(19,18,22,24)        -85.5673         calculate D2E/DX2 analytically  !
 ! D58   D(25,18,22,21)        -80.2291         calculate D2E/DX2 analytically  !
 ! D59   D(25,18,22,23)        160.5672         calculate D2E/DX2 analytically  !
 ! D60   D(25,18,22,24)         43.0617         calculate D2E/DX2 analytically  !
 ! D61   D(19,18,25,4)        -162.4675         calculate D2E/DX2 analytically  !
 ! D62   D(19,18,25,26)         75.8594         calculate D2E/DX2 analytically  !
 ! D63   D(19,18,25,27)        -44.0425         calculate D2E/DX2 analytically  !
 ! D64   D(22,18,25,4)          68.8014         calculate D2E/DX2 analytically  !
 ! D65   D(22,18,25,26)        -52.8717         calculate D2E/DX2 analytically  !
 ! D66   D(22,18,25,27)       -172.7736         calculate D2E/DX2 analytically  !
 ! D67   D(9,20,28,29)           0.2822         calculate D2E/DX2 analytically  !
 ! D68   D(9,20,28,32)         178.6182         calculate D2E/DX2 analytically  !
 ! D69   D(17,20,28,29)       -179.501          calculate D2E/DX2 analytically  !
 ! D70   D(17,20,28,32)         -1.1649         calculate D2E/DX2 analytically  !
 ! D71   D(17,21,22,18)        -32.045          calculate D2E/DX2 analytically  !
 ! D72   D(17,21,22,23)         87.329          calculate D2E/DX2 analytically  !
 ! D73   D(17,21,22,24)       -158.1037         calculate D2E/DX2 analytically  !
 ! D74   D(30,21,22,18)        147.7556         calculate D2E/DX2 analytically  !
 ! D75   D(30,21,22,23)        -92.8703         calculate D2E/DX2 analytically  !
 ! D76   D(30,21,22,24)         21.697          calculate D2E/DX2 analytically  !
 ! D77   D(17,21,30,31)        179.5133         calculate D2E/DX2 analytically  !
 ! D78   D(17,21,30,32)          1.1562         calculate D2E/DX2 analytically  !
 ! D79   D(22,21,30,31)         -0.2779         calculate D2E/DX2 analytically  !
 ! D80   D(22,21,30,32)       -178.635          calculate D2E/DX2 analytically  !
 ! D81   D(20,28,32,30)         -1.9214         calculate D2E/DX2 analytically  !
 ! D82   D(20,28,32,34)       -179.8461         calculate D2E/DX2 analytically  !
 ! D83   D(29,28,32,30)        176.4272         calculate D2E/DX2 analytically  !
 ! D84   D(29,28,32,34)         -1.4974         calculate D2E/DX2 analytically  !
 ! D85   D(21,30,32,28)          1.9256         calculate D2E/DX2 analytically  !
 ! D86   D(21,30,32,34)        179.8501         calculate D2E/DX2 analytically  !
 ! D87   D(31,30,32,28)       -176.4439         calculate D2E/DX2 analytically  !
 ! D88   D(31,30,32,34)          1.4806         calculate D2E/DX2 analytically  !
 --------------------------------------------------------------------------------
 Trust Radius=3.00D-01 FncErr=1.00D-07 GrdErr=1.00D-06 EigMax=2.50D+02 EigMin=1.00D-04
 Number of steps in this run=    196 maximum allowed number of steps=    204.
 GradGradGradGradGradGradGradGradGradGradGradGradGradGradGradGradGradGrad

 Leave Link  103 at Sat Nov 22 10:21:25 2025, MaxMem=  2684354560 cpu:               0.1 elap:               0.0
 (Enter /home/apps/g16/l202.exe)
                          Input orientation:                          
 ---------------------------------------------------------------------
 Center     Atomic      Atomic             Coordinates (Angstroms)
 Number     Number       Type             X           Y           Z
 ---------------------------------------------------------------------
      1          7           0        3.019766   20.445662   12.544038
      2          7           0        0.926214   19.743029   10.601400
      3          1           0        0.286616   18.986318   10.416251
      4          6           0        4.155710   21.123764   12.647694
      5          6           0        1.896387   21.121710   12.339546
      6          6           0        0.692691   20.310879   11.919600
      7          1           0        0.559522   19.485522   12.619286
      8          1           0       -0.203062   20.950318   11.955170
      9          6           0        0.971244   20.671833    9.494156
     10          1           0        0.179139   21.436643    9.546565
     11          1           0        0.799805   20.102922    8.576833
     12          6           0        4.208548   22.513787   12.661534
     13          1           0        5.151589   23.038386   12.733495
     14          6           0        1.839316   22.511692   12.338380
     15          1           0        0.910458   23.034516   12.155140
     16          6           0        3.020933   23.206460   12.517246
     17          7           0        3.408688   20.758063    9.689769
     18          7           0        5.556680   19.744887   11.233879
     19          1           0        6.221831   18.987594   11.227588
     20          6           0        2.302100   21.398698    9.336462
     21          6           0        4.569420   21.398795    9.645417
     22          6           0        5.809471   20.671685   10.153249
     23          1           0        6.218727   20.100969    9.315795
     24          1           0        6.559656   21.436175   10.413751
     25          6           0        5.429239   20.314954   12.565500
     26          1           0        6.282005   20.956335   12.837493
     27          1           0        5.372434   19.490806   13.276877
     28          6           0        2.315526   22.698481    8.836711
     29          1           0        1.401977   23.207723    8.561247
     30          6           0        4.690100   22.698492    9.160415
     31          1           0        5.644034   23.207675    9.139261
     32          6           0        3.538638   23.334820    8.735752
     33         17           0        3.025551   24.934206   12.473167
     34         17           0        3.621633   24.951692    8.126259
 ---------------------------------------------------------------------
                    Distance matrix (angstroms):
                    1          2          3          4          5
     1  N    0.000000
     2  N    2.941173   0.000000
     3  H    3.758627   1.007957   0.000000
     4  C    1.327003   4.064898   4.951556   0.000000
     5  C    1.326966   2.421395   3.293984   2.280241   0.000000
     6  C    2.413165   1.454180   2.044362   3.630896   1.510856
     7  H    2.642031   2.067036   2.275313   3.951861   2.131331
     8  H    3.314825   2.136705   2.542706   4.416850   2.141216
     9  C    3.680948   1.445924   2.039592   4.504427   3.025644
    10  H    4.246887   2.130523   2.602306   5.052525   3.293762
    11  H    4.558992   2.060187   2.212154   5.373651   4.049498
    12  C    2.388336   4.763924   5.732878   1.391095   2.718022
    13  H    3.361961   5.767062   6.742169   2.159841   3.798050
    14  C    2.388355   3.393575   4.305080   2.718032   1.391153
    15  H    3.361932   3.639814   4.449811   3.798058   2.159835
    16  C    2.760929   4.478132   5.449795   2.375365   2.375366
    17  N    2.897535   2.832674   3.662539   3.072637   3.072558
    18  N    2.939989   4.673462   5.386791   2.421341   4.063975
    19  H    3.756623   5.385754   5.990413   3.293748   4.949785
    20  C    3.422260   2.496873   3.323808   3.804696   3.042999
    21  C    3.422265   4.114415   4.975605   3.043101   3.805288
    22  C    3.680952   4.990935   5.780273   3.026806   4.504958
    23  H    4.557820   5.458168   6.135422   4.050148   5.372859
    24  H    4.248537   5.885374   6.734452   3.296522   5.055063
    25  C    2.413111   4.945909   5.729844   1.510895   3.630834
    26  H    3.314982   5.929310   6.759295   2.141305   4.416894
    27  H    2.642697   5.195254   5.856896   2.131394   3.952384
    28  C    4.394931   3.712009   4.515703   4.515484   3.864161
    29  H    5.109682   4.048788   4.743979   5.350232   4.344127
    30  C    4.394789   4.997804   5.894747   3.863477   4.516409
    31  H    5.109600   6.033196   6.939200   4.343604   5.351443
    32  C    4.808275   4.817299   5.684118   4.535729   4.536759
    33  Cl   4.489108   5.904156   6.863676   3.978340   3.978441
    34  Cl   6.339032   6.365672   7.207780   5.948247   5.949540
                    6          7          8          9         10
     6  C    0.000000
     7  H    1.090187   0.000000
     8  H    1.101146   1.779947   0.000000
     9  C    2.467926   3.367980   2.741011   0.000000
    10  H    2.676262   3.659669   2.486759   1.102321   0.000000
    11  H    3.350942   4.096382   3.624498   1.092947   1.761936
    12  C    4.214798   4.742105   4.733465   4.889296   5.205710
    13  H    5.289943   5.807147   5.799837   5.793891   6.119426
    14  C    2.516685   3.297648   2.599239   3.496890   3.421425
    15  H    2.742463   3.596379   2.371454   3.559045   3.145265
    16  C    3.763280   4.462548   3.974953   4.445743   4.475823
    17  N    3.542423   4.280090   4.267756   2.446800   3.303175
    18  N    4.944588   5.192130   5.928571   4.991201   5.884473
    19  H    5.727246   5.852050   6.757286   5.780147   6.733335
    20  C    3.232051   4.180162   3.651646   1.524591   2.133671
    21  C    4.624337   5.346381   5.320966   3.673992   4.391557
    22  C    5.425091   5.920327   6.282922   4.882913   5.714356
    23  H    6.112360   6.581674   6.994789   5.281456   6.189823
    24  H    6.160776   6.683640   6.953157   5.714912   6.439179
    25  C    4.780385   4.940140   5.700789   5.425332   6.159197
    26  H    5.700839   5.912505   6.544817   6.281960   6.950243
    27  H    4.941124   4.857630   5.912972   5.922354   6.683698
    28  C    4.223558   5.264459   4.373117   2.519251   2.580752
    29  H    4.491473   5.570655   4.380725   2.736163   2.367047
    30  C    5.412308   6.272849   5.899984   4.248367   4.700016
    31  H    6.374756   7.198421   6.871211   5.328359   5.759127
    32  C    5.232641   6.226883   5.481864   3.776002   3.942935
    33  Cl   5.208054   5.982542   5.153991   5.591289   5.375873
    34  Cl   6.671228   7.709917   6.730516   5.216598   5.120899
                   11         12         13         14         15
    11  H    0.000000
    12  C    5.840940   0.000000
    13  H    6.695731   1.081531   0.000000
    14  C    4.586065   2.391170   3.377081   0.000000
    15  H    4.627178   3.377128   4.280386   1.081526   0.000000
    16  C    5.485637   1.382405   2.148187   1.382358   2.148206
    17  N    2.911032   3.543124   4.183521   3.543061   4.183473
    18  N    5.460397   3.394476   3.641440   4.763815   5.766955
    19  H    6.137493   4.306221   4.452200   5.732326   6.741558
    20  C    2.124374   3.991750   4.727367   3.234878   3.543659
    21  C    4.126882   3.235799   3.544490   3.993001   4.728879
    22  C    5.282549   3.499683   3.562548   4.891068   5.795762
    23  H    5.469075   4.588734   4.631185   5.841819   6.696664
    24  H    6.190938   3.426585   3.151340   5.209851   6.123771
    25  C    6.114415   2.516778   2.742698   4.214829   5.289971
    26  H    6.995431   2.599200   2.371411   4.733470   5.799824
    27  H    6.585896   3.297225   3.595742   4.742304   5.807358
    28  C    3.016931   4.271641   4.831533   3.538835   3.619269
    29  H    3.162696   5.017046   5.612123   3.865548   3.631482
    30  C    4.712956   3.538904   3.618757   4.273327   4.833941
    31  H    5.781209   3.866330   3.631760   5.019426   5.615359
    32  C    4.239296   4.066281   4.321046   4.067452   4.323163
    33  Cl   6.593684   2.700629   2.860410   2.700722   2.860696
    34  Cl   5.628170   5.182332   5.218058   5.183842   5.220912
                   16         17         18         19         20
    16  C    0.000000
    17  N    3.760270   0.000000
    18  N    4.478787   2.832785   0.000000
    19  H    5.450486   3.662406   1.007947   0.000000
    20  C    3.728553   1.326565   4.114313   4.975346   0.000000
    21  C    3.729995   1.326576   2.496659   3.323796   2.288272
    22  C    4.448540   2.446637   1.445897   2.039708   3.673872
    23  H    5.488101   2.909974   2.060133   2.212367   4.126075
    24  H    4.481201   3.303421   2.130499   2.602308   4.391895
    25  C    3.763386   3.542428   1.454109   2.044528   4.623871
    26  H    3.974948   4.266548   2.136652   2.543886   5.319074
    27  H    4.462363   4.281306   2.066966   2.274705   5.347324
    28  C    3.781795   2.384939   4.997520   5.894590   1.392611
    29  H    4.274453   3.361739   6.032890   6.939010   2.164198
    30  C    3.783182   2.384848   3.711334   4.515547   2.724518
    31  H    4.276850   3.361612   4.047957   4.743843   3.805234
    32  C    3.818926   2.750766   4.816716   5.683938   2.374542
    33  Cl   1.728315   5.033317   5.905209   6.865120   4.781435
    34  Cl   4.763133   4.480673   6.364945   7.207616   3.978633
                   21         22         23         24         25
    21  C    0.000000
    22  C    1.524569   0.000000
    23  H    2.124434   1.092949   0.000000
    24  H    2.133724   1.102309   1.761964   0.000000
    25  C    3.231236   2.467952   3.351069   2.676753   0.000000
    26  H    3.649393   2.740343   3.624640   2.486335   1.101163
    27  H    4.180043   3.367867   4.096179   3.659433   1.090186
    28  C    2.724559   4.248390   4.712915   4.700331   5.411125
    29  H    3.805304   5.328411   5.781207   5.759498   6.373460
    30  C    1.392481   2.519257   3.017941   2.580608   4.221633
    31  H    2.164033   2.736199   3.164342   2.366623   4.489219
    32  C    2.374488   3.776012   4.239944   3.942979   5.230768
    33  Cl   4.783182   5.594758   6.597391   5.382130   5.208045
    34  Cl   3.978594   5.216683   5.629334   5.120884   6.668856
                   26         27         28         29         30
    26  H    0.000000
    27  H    1.779931   0.000000
    28  C    5.896972   6.272873   0.000000
    29  H    6.868021   7.198415   1.081564   0.000000
    30  C    4.369231   5.263088   2.396536   3.380839   0.000000
    31  H    4.376353   5.568551   3.380796   4.281256   1.081529
    32  C    5.477914   6.225839   1.382434   2.147540   1.382432
    33  Cl   5.153706   5.982008   4.327403   4.573823   4.329373
    34  Cl   6.725785   7.708141   2.699559   2.856136   2.699631
                   31         32         33         34
    31  H    0.000000
    32  C    2.147482   0.000000
    33  Cl   4.577368   4.097508   0.000000
    34  Cl   2.856199   1.729926   4.387622   0.000000
 Symmetry turned off by external request.
 Stoichiometry    C14H14Cl2N4
 Framework group  C1[X(C14H14Cl2N4)]
 Deg. of freedom    96
 Full point group                 C1      NOp   1
 Rotational constants (GHZ):           0.3579331           0.2740075           0.2638495
 Leave Link  202 at Sat Nov 22 10:21:25 2025, MaxMem=  2684354560 cpu:               0.1 elap:               0.0
 (Enter /home/apps/g16/l301.exe)
 Standard basis: def2TZVP (5D, 7F)
 ======================================================================================================
                                       Pseudopotential Parameters
 ======================================================================================================
  Center     Atomic      Valence      Angular      Power
  Number     Number     Electrons     Momentum     of R      Exponent        Coefficient   SO-Coeffient
 ======================================================================================================
    1          7
                                   No pseudopotential on this center.
    2          7
                                   No pseudopotential on this center.
    3          1
                                   No pseudopotential on this center.
    4          6
                                   No pseudopotential on this center.
    5          6
                                   No pseudopotential on this center.
    6          6
                                   No pseudopotential on this center.
    7          1
                                   No pseudopotential on this center.
    8          1
                                   No pseudopotential on this center.
    9          6
                                   No pseudopotential on this center.
   10          1
                                   No pseudopotential on this center.
   11          1
                                   No pseudopotential on this center.
   12          6
                                   No pseudopotential on this center.
   13          1
                                   No pseudopotential on this center.
   14          6
                                   No pseudopotential on this center.
   15          1
                                   No pseudopotential on this center.
   16          6
                                   No pseudopotential on this center.
   17          7
                                   No pseudopotential on this center.
   18          7
                                   No pseudopotential on this center.
   19          1
                                   No pseudopotential on this center.
   20          6
                                   No pseudopotential on this center.
   21          6
                                   No pseudopotential on this center.
   22          6
                                   No pseudopotential on this center.
   23          1
                                   No pseudopotential on this center.
   24          1
                                   No pseudopotential on this center.
   25          6
                                   No pseudopotential on this center.
   26          1
                                   No pseudopotential on this center.
   27          1
                                   No pseudopotential on this center.
   28          6
                                   No pseudopotential on this center.
   29          1
                                   No pseudopotential on this center.
   30          6
                                   No pseudopotential on this center.
   31          1
                                   No pseudopotential on this center.
   32          6
                                   No pseudopotential on this center.
   33         17
                                   No pseudopotential on this center.
   34         17
                                   No pseudopotential on this center.
 ======================================================================================================
 Ernie: Thresh=  0.10000D-02 Tol=  0.10000D-05 Strict=F.
 AO basis set (Overlap normalization):
 Atom N1       Shell     1 S   6     bf    1 -     1          5.706530611054         38.636701085790         23.704796383542
      0.1973080065D+05  0.5862640263D-03
      0.2957895874D+04  0.4542882059D-02
      0.6732213360D+03  0.2355841345D-01
      0.1906824949D+03  0.9470919329D-01
      0.6229544190D+02  0.2971978491D+00
      0.2265416118D+02  0.6691624690D+00
 Atom N1       Shell     2 S   2     bf    2 -     2          5.706530611054         38.636701085790         23.704796383542
      0.8979147743D+01  0.6459668363D+00
      0.3686300237D+01  0.3870057439D+00
 Atom N1       Shell     3 S   1     bf    3 -     3          5.706530611054         38.636701085790         23.704796383542
      0.8466007680D+00  0.1000000000D+01
 Atom N1       Shell     4 S   1     bf    4 -     4          5.706530611054         38.636701085790         23.704796383542
      0.3364713377D+00  0.1000000000D+01
 Atom N1       Shell     5 S   1     bf    5 -     5          5.706530611054         38.636701085790         23.704796383542
      0.1364765367D+00  0.1000000000D+01
 Atom N1       Shell     6 P   4     bf    6 -     8          5.706530611054         38.636701085790         23.704796383542
      0.4920038051D+02  0.1144882510D-01
      0.1134679054D+02  0.7842233797D-01
      0.3427397241D+01  0.3081809474D+00
      0.1178552513D+01  0.7202719637D+00
 Atom N1       Shell     7 P   1     bf    9 -    11          5.706530611054         38.636701085790         23.704796383542
      0.4164220497D+00  0.1000000000D+01
 Atom N1       Shell     8 P   1     bf   12 -    14          5.706530611054         38.636701085790         23.704796383542
      0.1426082601D+00  0.1000000000D+01
 Atom N1       Shell     9 D   1     bf   15 -    19          5.706530611054         38.636701085790         23.704796383542
      0.1654000000D+01  0.1000000000D+01
 Atom N1       Shell    10 D   1     bf   20 -    24          5.706530611054         38.636701085790         23.704796383542
      0.4690000000D+00  0.1000000000D+01
 Atom N1       Shell    11 F   1     bf   25 -    31          5.706530611054         38.636701085790         23.704796383542
      0.1093000000D+01  0.1000000000D+01
 Atom N2       Shell    12 S   6     bf   32 -    32          1.750290949022         37.308916797307         20.033742071696
      0.1973080065D+05  0.5862640263D-03
      0.2957895874D+04  0.4542882059D-02
      0.6732213360D+03  0.2355841345D-01
      0.1906824949D+03  0.9470919329D-01
      0.6229544190D+02  0.2971978491D+00
      0.2265416118D+02  0.6691624690D+00
 Atom N2       Shell    13 S   2     bf   33 -    33          1.750290949022         37.308916797307         20.033742071696
      0.8979147743D+01  0.6459668363D+00
      0.3686300237D+01  0.3870057439D+00
 Atom N2       Shell    14 S   1     bf   34 -    34          1.750290949022         37.308916797307         20.033742071696
      0.8466007680D+00  0.1000000000D+01
 Atom N2       Shell    15 S   1     bf   35 -    35          1.750290949022         37.308916797307         20.033742071696
      0.3364713377D+00  0.1000000000D+01
 Atom N2       Shell    16 S   1     bf   36 -    36          1.750290949022         37.308916797307         20.033742071696
      0.1364765367D+00  0.1000000000D+01
 Atom N2       Shell    17 P   4     bf   37 -    39          1.750290949022         37.308916797307         20.033742071696
      0.4920038051D+02  0.1144882510D-01
      0.1134679054D+02  0.7842233797D-01
      0.3427397241D+01  0.3081809474D+00
      0.1178552513D+01  0.7202719637D+00
 Atom N2       Shell    18 P   1     bf   40 -    42          1.750290949022         37.308916797307         20.033742071696
      0.4164220497D+00  0.1000000000D+01
 Atom N2       Shell    19 P   1     bf   43 -    45          1.750290949022         37.308916797307         20.033742071696
      0.1426082601D+00  0.1000000000D+01
 Atom N2       Shell    20 D   1     bf   46 -    50          1.750290949022         37.308916797307         20.033742071696
      0.1654000000D+01  0.1000000000D+01
 Atom N2       Shell    21 D   1     bf   51 -    55          1.750290949022         37.308916797307         20.033742071696
      0.4690000000D+00  0.1000000000D+01
 Atom N2       Shell    22 F   1     bf   56 -    62          1.750290949022         37.308916797307         20.033742071696
      0.1093000000D+01  0.1000000000D+01
 Atom H3       Shell    23 S   3     bf   63 -    63          0.541624889471         35.878941533099         19.683861200190
      0.3406134100D+02  0.2543930721D-01
      0.5123574600D+01  0.1900859489D+00
      0.1164662600D+01  0.8524411301D+00
 Atom H3       Shell    24 S   1     bf   64 -    64          0.541624889471         35.878941533099         19.683861200190
      0.3272304100D+00  0.1000000000D+01
 Atom H3       Shell    25 S   1     bf   65 -    65          0.541624889471         35.878941533099         19.683861200190
      0.1030724100D+00  0.1000000000D+01
 Atom H3       Shell    26 P   1     bf   66 -    68          0.541624889471         35.878941533099         19.683861200190
      0.8000000000D+00  0.1000000000D+01
 Atom C4       Shell    27 S   6     bf   69 -    69          7.853153689589         39.918128749073         23.900677521304
      0.1357534968D+05  0.6064550360D-03
      0.2035233368D+04  0.4697908888D-02
      0.4632256236D+03  0.2433247765D-01
      0.1312001960D+03  0.9739996831D-01
      0.4285301589D+02  0.3019558425D+00
      0.1558418577D+02  0.6623360914D+00
 Atom C4       Shell    28 S   2     bf   70 -    70          7.853153689589         39.918128749073         23.900677521304
      0.6206713851D+01  0.6559530854D+00
      0.2576489653D+01  0.3758563329D+00
 Atom C4       Shell    29 S   1     bf   71 -    71          7.853153689589         39.918128749073         23.900677521304
      0.5769633942D+00  0.1000000000D+01
 Atom C4       Shell    30 S   1     bf   72 -    72          7.853153689589         39.918128749073         23.900677521304
      0.2297283136D+00  0.1000000000D+01
 Atom C4       Shell    31 S   1     bf   73 -    73          7.853153689589         39.918128749073         23.900677521304
      0.9516444003D-01  0.1000000000D+01
 Atom C4       Shell    32 P   4     bf   74 -    76          7.853153689589         39.918128749073         23.900677521304
      0.3469723224D+02  0.1132722000D-01
      0.7958262283D+01  0.7616965920D-01
      0.2378082688D+01  0.3019225220D+00
      0.8143320818D+00  0.7278502735D+00
 Atom C4       Shell    33 P   1     bf   77 -    79          7.853153689589         39.918128749073         23.900677521304
      0.2888754725D+00  0.1000000000D+01
 Atom C4       Shell    34 P   1     bf   80 -    82          7.853153689589         39.918128749073         23.900677521304
      0.1005682367D+00  0.1000000000D+01
 Atom C4       Shell    35 D   1     bf   83 -    87          7.853153689589         39.918128749073         23.900677521304
      0.1097000000D+01  0.1000000000D+01
 Atom C4       Shell    36 D   1     bf   88 -    92          7.853153689589         39.918128749073         23.900677521304
      0.3180000000D+00  0.1000000000D+01
 Atom C4       Shell    37 F   1     bf   93 -    99          7.853153689589         39.918128749073         23.900677521304
      0.7610000000D+00  0.1000000000D+01
 Atom C5       Shell    38 S   6     bf  100 -   100          3.583651283526         39.914247776931         23.318363037883
      0.1357534968D+05  0.6064550360D-03
      0.2035233368D+04  0.4697908888D-02
      0.4632256236D+03  0.2433247765D-01
      0.1312001960D+03  0.9739996831D-01
      0.4285301589D+02  0.3019558425D+00
      0.1558418577D+02  0.6623360914D+00
 Atom C5       Shell    39 S   2     bf  101 -   101          3.583651283526         39.914247776931         23.318363037883
      0.6206713851D+01  0.6559530854D+00
      0.2576489653D+01  0.3758563329D+00
 Atom C5       Shell    40 S   1     bf  102 -   102          3.583651283526         39.914247776931         23.318363037883
      0.5769633942D+00  0.1000000000D+01
 Atom C5       Shell    41 S   1     bf  103 -   103          3.583651283526         39.914247776931         23.318363037883
      0.2297283136D+00  0.1000000000D+01
 Atom C5       Shell    42 S   1     bf  104 -   104          3.583651283526         39.914247776931         23.318363037883
      0.9516444003D-01  0.1000000000D+01
 Atom C5       Shell    43 P   4     bf  105 -   107          3.583651283526         39.914247776931         23.318363037883
      0.3469723224D+02  0.1132722000D-01
      0.7958262283D+01  0.7616965920D-01
      0.2378082688D+01  0.3019225220D+00
      0.8143320818D+00  0.7278502735D+00
 Atom C5       Shell    44 P   1     bf  108 -   110          3.583651283526         39.914247776931         23.318363037883
      0.2888754725D+00  0.1000000000D+01
 Atom C5       Shell    45 P   1     bf  111 -   113          3.583651283526         39.914247776931         23.318363037883
      0.1005682367D+00  0.1000000000D+01
 Atom C5       Shell    46 D   1     bf  114 -   118          3.583651283526         39.914247776931         23.318363037883
      0.1097000000D+01  0.1000000000D+01
 Atom C5       Shell    47 D   1     bf  119 -   123          3.583651283526         39.914247776931         23.318363037883
      0.3180000000D+00  0.1000000000D+01
 Atom C5       Shell    48 F   1     bf  124 -   130          3.583651283526         39.914247776931         23.318363037883
      0.7610000000D+00  0.1000000000D+01
 Atom C6       Shell    49 S   6     bf  131 -   131          1.308996432376         38.381998529921         22.524779769687
      0.1357534968D+05  0.6064550360D-03
      0.2035233368D+04  0.4697908888D-02
      0.4632256236D+03  0.2433247765D-01
      0.1312001960D+03  0.9739996831D-01
      0.4285301589D+02  0.3019558425D+00
      0.1558418577D+02  0.6623360914D+00
 Atom C6       Shell    50 S   2     bf  132 -   132          1.308996432376         38.381998529921         22.524779769687
      0.6206713851D+01  0.6559530854D+00
      0.2576489653D+01  0.3758563329D+00
 Atom C6       Shell    51 S   1     bf  133 -   133          1.308996432376         38.381998529921         22.524779769687
      0.5769633942D+00  0.1000000000D+01
 Atom C6       Shell    52 S   1     bf  134 -   134          1.308996432376         38.381998529921         22.524779769687
      0.2297283136D+00  0.1000000000D+01
 Atom C6       Shell    53 S   1     bf  135 -   135          1.308996432376         38.381998529921         22.524779769687
      0.9516444003D-01  0.1000000000D+01
 Atom C6       Shell    54 P   4     bf  136 -   138          1.308996432376         38.381998529921         22.524779769687
      0.3469723224D+02  0.1132722000D-01
      0.7958262283D+01  0.7616965920D-01
      0.2378082688D+01  0.3019225220D+00
      0.8143320818D+00  0.7278502735D+00
 Atom C6       Shell    55 P   1     bf  139 -   141          1.308996432376         38.381998529921         22.524779769687
      0.2888754725D+00  0.1000000000D+01
 Atom C6       Shell    56 P   1     bf  142 -   144          1.308996432376         38.381998529921         22.524779769687
      0.1005682367D+00  0.1000000000D+01
 Atom C6       Shell    57 D   1     bf  145 -   149          1.308996432376         38.381998529921         22.524779769687
      0.1097000000D+01  0.1000000000D+01
 Atom C6       Shell    58 D   1     bf  150 -   154          1.308996432376         38.381998529921         22.524779769687
      0.3180000000D+00  0.1000000000D+01
 Atom C6       Shell    59 F   1     bf  155 -   161          1.308996432376         38.381998529921         22.524779769687
      0.7610000000D+00  0.1000000000D+01
 Atom H7       Shell    60 S   3     bf  162 -   162          1.057343919840         36.822300851117         23.846994773837
      0.3406134100D+02  0.2543930721D-01
      0.5123574600D+01  0.1900859489D+00
      0.1164662600D+01  0.8524411301D+00
 Atom H7       Shell    61 S   1     bf  163 -   163          1.057343919840         36.822300851117         23.846994773837
      0.3272304100D+00  0.1000000000D+01
 Atom H7       Shell    62 S   1     bf  164 -   164          1.057343919840         36.822300851117         23.846994773837
      0.1030724100D+00  0.1000000000D+01
 Atom H7       Shell    63 P   1     bf  165 -   167          1.057343919840         36.822300851117         23.846994773837
      0.8000000000D+00  0.1000000000D+01
 Atom H8       Shell    64 S   3     bf  168 -   168         -0.383731772442         39.590363353089         22.591997832523
      0.3406134100D+02  0.2543930721D-01
      0.5123574600D+01  0.1900859489D+00
      0.1164662600D+01  0.8524411301D+00
 Atom H8       Shell    65 S   1     bf  169 -   169         -0.383731772442         39.590363353089         22.591997832523
      0.3272304100D+00  0.1000000000D+01
 Atom H8       Shell    66 S   1     bf  170 -   170         -0.383731772442         39.590363353089         22.591997832523
      0.1030724100D+00  0.1000000000D+01
 Atom H8       Shell    67 P   1     bf  171 -   173         -0.383731772442         39.590363353089         22.591997832523
      0.8000000000D+00  0.1000000000D+01
 Atom C9       Shell    68 S   6     bf  174 -   174          1.835385773676         39.064103346384         17.941354533439
      0.1357534968D+05  0.6064550360D-03
      0.2035233368D+04  0.4697908888D-02
      0.4632256236D+03  0.2433247765D-01
      0.1312001960D+03  0.9739996831D-01
      0.4285301589D+02  0.3019558425D+00
      0.1558418577D+02  0.6623360914D+00
 Atom C9       Shell    69 S   2     bf  175 -   175          1.835385773676         39.064103346384         17.941354533439
      0.6206713851D+01  0.6559530854D+00
      0.2576489653D+01  0.3758563329D+00
 Atom C9       Shell    70 S   1     bf  176 -   176          1.835385773676         39.064103346384         17.941354533439
      0.5769633942D+00  0.1000000000D+01
 Atom C9       Shell    71 S   1     bf  177 -   177          1.835385773676         39.064103346384         17.941354533439
      0.2297283136D+00  0.1000000000D+01
 Atom C9       Shell    72 S   1     bf  178 -   178          1.835385773676         39.064103346384         17.941354533439
      0.9516444003D-01  0.1000000000D+01
 Atom C9       Shell    73 P   4     bf  179 -   181          1.835385773676         39.064103346384         17.941354533439
      0.3469723224D+02  0.1132722000D-01
      0.7958262283D+01  0.7616965920D-01
      0.2378082688D+01  0.3019225220D+00
      0.8143320818D+00  0.7278502735D+00
 Atom C9       Shell    74 P   1     bf  182 -   184          1.835385773676         39.064103346384         17.941354533439
      0.2888754725D+00  0.1000000000D+01
 Atom C9       Shell    75 P   1     bf  185 -   187          1.835385773676         39.064103346384         17.941354533439
      0.1005682367D+00  0.1000000000D+01
 Atom C9       Shell    76 D   1     bf  188 -   192          1.835385773676         39.064103346384         17.941354533439
      0.1097000000D+01  0.1000000000D+01
 Atom C9       Shell    77 D   1     bf  193 -   197          1.835385773676         39.064103346384         17.941354533439
      0.3180000000D+00  0.1000000000D+01
 Atom C9       Shell    78 F   1     bf  198 -   204          1.835385773676         39.064103346384         17.941354533439
      0.7610000000D+00  0.1000000000D+01
 Atom H10      Shell    79 S   3     bf  205 -   205          0.338522812125         40.509383777437         18.040393438491
      0.3406134100D+02  0.2543930721D-01
      0.5123574600D+01  0.1900859489D+00
      0.1164662600D+01  0.8524411301D+00
 Atom H10      Shell    80 S   1     bf  206 -   206          0.338522812125         40.509383777437         18.040393438491
      0.3272304100D+00  0.1000000000D+01
 Atom H10      Shell    81 S   1     bf  207 -   207          0.338522812125         40.509383777437         18.040393438491
      0.1030724100D+00  0.1000000000D+01
 Atom H10      Shell    82 P   1     bf  208 -   210          0.338522812125         40.509383777437         18.040393438491
      0.8000000000D+00  0.1000000000D+01
 Atom H11      Shell    83 S   3     bf  211 -   211          1.511412723391         37.989016250791         16.207865593083
      0.3406134100D+02  0.2543930721D-01
      0.5123574600D+01  0.1900859489D+00
      0.1164662600D+01  0.8524411301D+00
 Atom H11      Shell    84 S   1     bf  212 -   212          1.511412723391         37.989016250791         16.207865593083
      0.3272304100D+00  0.1000000000D+01
 Atom H11      Shell    85 S   1     bf  213 -   213          1.511412723391         37.989016250791         16.207865593083
      0.1030724100D+00  0.1000000000D+01
 Atom H11      Shell    86 P   1     bf  214 -   216          1.511412723391         37.989016250791         16.207865593083
      0.8000000000D+00  0.1000000000D+01
 Atom C12      Shell    87 S   6     bf  217 -   217          7.953002920534         42.544890951630         23.926831966793
      0.1357534968D+05  0.6064550360D-03
      0.2035233368D+04  0.4697908888D-02
      0.4632256236D+03  0.2433247765D-01
      0.1312001960D+03  0.9739996831D-01
      0.4285301589D+02  0.3019558425D+00
      0.1558418577D+02  0.6623360914D+00
 Atom C12      Shell    88 S   2     bf  218 -   218          7.953002920534         42.544890951630         23.926831966793
      0.6206713851D+01  0.6559530854D+00
      0.2576489653D+01  0.3758563329D+00
 Atom C12      Shell    89 S   1     bf  219 -   219          7.953002920534         42.544890951630         23.926831966793
      0.5769633942D+00  0.1000000000D+01
 Atom C12      Shell    90 S   1     bf  220 -   220          7.953002920534         42.544890951630         23.926831966793
      0.2297283136D+00  0.1000000000D+01
 Atom C12      Shell    91 S   1     bf  221 -   221          7.953002920534         42.544890951630         23.926831966793
      0.9516444003D-01  0.1000000000D+01
 Atom C12      Shell    92 P   4     bf  222 -   224          7.953002920534         42.544890951630         23.926831966793
      0.3469723224D+02  0.1132722000D-01
      0.7958262283D+01  0.7616965920D-01
      0.2378082688D+01  0.3019225220D+00
      0.8143320818D+00  0.7278502735D+00
 Atom C12      Shell    93 P   1     bf  225 -   227          7.953002920534         42.544890951630         23.926831966793
      0.2888754725D+00  0.1000000000D+01
 Atom C12      Shell    94 P   1     bf  228 -   230          7.953002920534         42.544890951630         23.926831966793
      0.1005682367D+00  0.1000000000D+01
 Atom C12      Shell    95 D   1     bf  231 -   235          7.953002920534         42.544890951630         23.926831966793
      0.1097000000D+01  0.1000000000D+01
 Atom C12      Shell    96 D   1     bf  236 -   240          7.953002920534         42.544890951630         23.926831966793
      0.3180000000D+00  0.1000000000D+01
 Atom C12      Shell    97 F   1     bf  241 -   247          7.953002920534         42.544890951630         23.926831966793
      0.7610000000D+00  0.1000000000D+01
 Atom H13      Shell    98 S   3     bf  248 -   248          9.735092841702         43.536239746649         24.062818317010
      0.3406134100D+02  0.2543930721D-01
      0.5123574600D+01  0.1900859489D+00
      0.1164662600D+01  0.8524411301D+00
 Atom H13      Shell    99 S   1     bf  249 -   249          9.735092841702         43.536239746649         24.062818317010
      0.3272304100D+00  0.1000000000D+01
 Atom H13      Shell   100 S   1     bf  250 -   250          9.735092841702         43.536239746649         24.062818317010
      0.1030724100D+00  0.1000000000D+01
 Atom H13      Shell   101 P   1     bf  251 -   253          9.735092841702         43.536239746649         24.062818317010
      0.8000000000D+00  0.1000000000D+01
 Atom C14      Shell   102 S   6     bf  254 -   254          3.475803344162         42.540932188352         23.316158576115
      0.1357534968D+05  0.6064550360D-03
      0.2035233368D+04  0.4697908888D-02
      0.4632256236D+03  0.2433247765D-01
      0.1312001960D+03  0.9739996831D-01
      0.4285301589D+02  0.3019558425D+00
      0.1558418577D+02  0.6623360914D+00
 Atom C14      Shell   103 S   2     bf  255 -   255          3.475803344162         42.540932188352         23.316158576115
      0.6206713851D+01  0.6559530854D+00
      0.2576489653D+01  0.3758563329D+00
 Atom C14      Shell   104 S   1     bf  256 -   256          3.475803344162         42.540932188352         23.316158576115
      0.5769633942D+00  0.1000000000D+01
 Atom C14      Shell   105 S   1     bf  257 -   257          3.475803344162         42.540932188352         23.316158576115
      0.2297283136D+00  0.1000000000D+01
 Atom C14      Shell   106 S   1     bf  258 -   258          3.475803344162         42.540932188352         23.316158576115
      0.9516444003D-01  0.1000000000D+01
 Atom C14      Shell   107 P   4     bf  259 -   261          3.475803344162         42.540932188352         23.316158576115
      0.3469723224D+02  0.1132722000D-01
      0.7958262283D+01  0.7616965920D-01
      0.2378082688D+01  0.3019225220D+00
      0.8143320818D+00  0.7278502735D+00
 Atom C14      Shell   108 P   1     bf  262 -   264          3.475803344162         42.540932188352         23.316158576115
      0.2888754725D+00  0.1000000000D+01
 Atom C14      Shell   109 P   1     bf  265 -   267          3.475803344162         42.540932188352         23.316158576115
      0.1005682367D+00  0.1000000000D+01
 Atom C14      Shell   110 D   1     bf  268 -   272          3.475803344162         42.540932188352         23.316158576115
      0.1097000000D+01  0.1000000000D+01
 Atom C14      Shell   111 D   1     bf  273 -   277          3.475803344162         42.540932188352         23.316158576115
      0.3180000000D+00  0.1000000000D+01
 Atom C14      Shell   112 F   1     bf  278 -   284          3.475803344162         42.540932188352         23.316158576115
      0.7610000000D+00  0.1000000000D+01
 Atom H15      Shell   113 S   3     bf  285 -   285          1.720516187411         43.528926800127         22.969886246686
      0.3406134100D+02  0.2543930721D-01
      0.5123574600D+01  0.1900859489D+00
      0.1164662600D+01  0.8524411301D+00
 Atom H15      Shell   114 S   1     bf  286 -   286          1.720516187411         43.528926800127         22.969886246686
      0.3272304100D+00  0.1000000000D+01
 Atom H15      Shell   115 S   1     bf  287 -   287          1.720516187411         43.528926800127         22.969886246686
      0.1030724100D+00  0.1000000000D+01
 Atom H15      Shell   116 P   1     bf  288 -   290          1.720516187411         43.528926800127         22.969886246686
      0.8000000000D+00  0.1000000000D+01
 Atom C16      Shell   117 S   6     bf  291 -   291          5.708735827512         43.853853801804         23.654166044379
      0.1357534968D+05  0.6064550360D-03
      0.2035233368D+04  0.4697908888D-02
      0.4632256236D+03  0.2433247765D-01
      0.1312001960D+03  0.9739996831D-01
      0.4285301589D+02  0.3019558425D+00
      0.1558418577D+02  0.6623360914D+00
 Atom C16      Shell   118 S   2     bf  292 -   292          5.708735827512         43.853853801804         23.654166044379
      0.6206713851D+01  0.6559530854D+00
      0.2576489653D+01  0.3758563329D+00
 Atom C16      Shell   119 S   1     bf  293 -   293          5.708735827512         43.853853801804         23.654166044379
      0.5769633942D+00  0.1000000000D+01
 Atom C16      Shell   120 S   1     bf  294 -   294          5.708735827512         43.853853801804         23.654166044379
      0.2297283136D+00  0.1000000000D+01
 Atom C16      Shell   121 S   1     bf  295 -   295          5.708735827512         43.853853801804         23.654166044379
      0.9516444003D-01  0.1000000000D+01
 Atom C16      Shell   122 P   4     bf  296 -   298          5.708735827512         43.853853801804         23.654166044379
      0.3469723224D+02  0.1132722000D-01
      0.7958262283D+01  0.7616965920D-01
      0.2378082688D+01  0.3019225220D+00
      0.8143320818D+00  0.7278502735D+00
 Atom C16      Shell   123 P   1     bf  299 -   301          5.708735827512         43.853853801804         23.654166044379
      0.2888754725D+00  0.1000000000D+01
 Atom C16      Shell   124 P   1     bf  302 -   304          5.708735827512         43.853853801804         23.654166044379
      0.1005682367D+00  0.1000000000D+01
 Atom C16      Shell   125 D   1     bf  305 -   309          5.708735827512         43.853853801804         23.654166044379
      0.1097000000D+01  0.1000000000D+01
 Atom C16      Shell   126 D   1     bf  310 -   314          5.708735827512         43.853853801804         23.654166044379
      0.3180000000D+00  0.1000000000D+01
 Atom C16      Shell   127 F   1     bf  315 -   321          5.708735827512         43.853853801804         23.654166044379
      0.7610000000D+00  0.1000000000D+01
 Atom N17      Shell   128 S   6     bf  322 -   322          6.441486599918         39.227053414561         18.311009653036
      0.1973080065D+05  0.5862640263D-03
      0.2957895874D+04  0.4542882059D-02
      0.6732213360D+03  0.2355841345D-01
      0.1906824949D+03  0.9470919329D-01
      0.6229544190D+02  0.2971978491D+00
      0.2265416118D+02  0.6691624690D+00
 Atom N17      Shell   129 S   2     bf  323 -   323          6.441486599918         39.227053414561         18.311009653036
      0.8979147743D+01  0.6459668363D+00
      0.3686300237D+01  0.3870057439D+00
 Atom N17      Shell   130 S   1     bf  324 -   324          6.441486599918         39.227053414561         18.311009653036
      0.8466007680D+00  0.1000000000D+01
 Atom N17      Shell   131 S   1     bf  325 -   325          6.441486599918         39.227053414561         18.311009653036
      0.3364713377D+00  0.1000000000D+01
 Atom N17      Shell   132 S   1     bf  326 -   326          6.441486599918         39.227053414561         18.311009653036
      0.1364765367D+00  0.1000000000D+01
 Atom N17      Shell   133 P   4     bf  327 -   329          6.441486599918         39.227053414561         18.311009653036
      0.4920038051D+02  0.1144882510D-01
      0.1134679054D+02  0.7842233797D-01
      0.3427397241D+01  0.3081809474D+00
      0.1178552513D+01  0.7202719637D+00
 Atom N17      Shell   134 P   1     bf  330 -   332          6.441486599918         39.227053414561         18.311009653036
      0.4164220497D+00  0.1000000000D+01
 Atom N17      Shell   135 P   1     bf  333 -   335          6.441486599918         39.227053414561         18.311009653036
      0.1426082601D+00  0.1000000000D+01
 Atom N17      Shell   136 D   1     bf  336 -   340          6.441486599918         39.227053414561         18.311009653036
      0.1654000000D+01  0.1000000000D+01
 Atom N17      Shell   137 D   1     bf  341 -   345          6.441486599918         39.227053414561         18.311009653036
      0.4690000000D+00  0.1000000000D+01
 Atom N17      Shell   138 F   1     bf  346 -   352          6.441486599918         39.227053414561         18.311009653036
      0.1093000000D+01  0.1000000000D+01
 Atom N18      Shell   139 S   6     bf  353 -   353         10.500603521307         37.312428137836         21.228953853467
      0.1973080065D+05  0.5862640263D-03
      0.2957895874D+04  0.4542882059D-02
      0.6732213360D+03  0.2355841345D-01
      0.1906824949D+03  0.9470919329D-01
      0.6229544190D+02  0.2971978491D+00
      0.2265416118D+02  0.6691624690D+00
 Atom N18      Shell   140 S   2     bf  354 -   354         10.500603521307         37.312428137836         21.228953853467
      0.8979147743D+01  0.6459668363D+00
      0.3686300237D+01  0.3870057439D+00
 Atom N18      Shell   141 S   1     bf  355 -   355         10.500603521307         37.312428137836         21.228953853467
      0.8466007680D+00  0.1000000000D+01
 Atom N18      Shell   142 S   1     bf  356 -   356         10.500603521307         37.312428137836         21.228953853467
      0.3364713377D+00  0.1000000000D+01
 Atom N18      Shell   143 S   1     bf  357 -   357         10.500603521307         37.312428137836         21.228953853467
      0.1364765367D+00  0.1000000000D+01
 Atom N18      Shell   144 P   4     bf  358 -   360         10.500603521307         37.312428137836         21.228953853467
      0.4920038051D+02  0.1144882510D-01
      0.1134679054D+02  0.7842233797D-01
      0.3427397241D+01  0.3081809474D+00
      0.1178552513D+01  0.7202719637D+00
 Atom N18      Shell   145 P   1     bf  361 -   363         10.500603521307         37.312428137836         21.228953853467
      0.4164220497D+00  0.1000000000D+01
 Atom N18      Shell   146 P   1     bf  364 -   366         10.500603521307         37.312428137836         21.228953853467
      0.1426082601D+00  0.1000000000D+01
 Atom N18      Shell   147 D   1     bf  367 -   371         10.500603521307         37.312428137836         21.228953853467
      0.1654000000D+01  0.1000000000D+01
 Atom N18      Shell   148 D   1     bf  372 -   376         10.500603521307         37.312428137836         21.228953853467
      0.4690000000D+00  0.1000000000D+01
 Atom N18      Shell   149 F   1     bf  377 -   383         10.500603521307         37.312428137836         21.228953853467
      0.1093000000D+01  0.1000000000D+01
 Atom H19      Shell   150 S   3     bf  384 -   384         11.757555757150         35.881352470004         21.217066671772
      0.3406134100D+02  0.2543930721D-01
      0.5123574600D+01  0.1900859489D+00
      0.1164662600D+01  0.8524411301D+00
 Atom H19      Shell   151 S   1     bf  385 -   385         11.757555757150         35.881352470004         21.217066671772
      0.3272304100D+00  0.1000000000D+01
 Atom H19      Shell   152 S   1     bf  386 -   386         11.757555757150         35.881352470004         21.217066671772
      0.1030724100D+00  0.1000000000D+01
 Atom H19      Shell   153 P   1     bf  387 -   389         11.757555757150         35.881352470004         21.217066671772
      0.8000000000D+00  0.1000000000D+01
 Atom C20      Shell   154 S   6     bf  390 -   390          4.350339433829         40.437678844496         17.643356220354
      0.1357534968D+05  0.6064550360D-03
      0.2035233368D+04  0.4697908888D-02
      0.4632256236D+03  0.2433247765D-01
      0.1312001960D+03  0.9739996831D-01
      0.4285301589D+02  0.3019558425D+00
      0.1558418577D+02  0.6623360914D+00
 Atom C20      Shell   155 S   2     bf  391 -   391          4.350339433829         40.437678844496         17.643356220354
      0.6206713851D+01  0.6559530854D+00
      0.2576489653D+01  0.3758563329D+00
 Atom C20      Shell   156 S   1     bf  392 -   392          4.350339433829         40.437678844496         17.643356220354
      0.5769633942D+00  0.1000000000D+01
 Atom C20      Shell   157 S   1     bf  393 -   393          4.350339433829         40.437678844496         17.643356220354
      0.2297283136D+00  0.1000000000D+01
 Atom C20      Shell   158 S   1     bf  394 -   394          4.350339433829         40.437678844496         17.643356220354
      0.9516444003D-01  0.1000000000D+01
 Atom C20      Shell   159 P   4     bf  395 -   397          4.350339433829         40.437678844496         17.643356220354
      0.3469723224D+02  0.1132722000D-01
      0.7958262283D+01  0.7616965920D-01
      0.2378082688D+01  0.3019225220D+00
      0.8143320818D+00  0.7278502735D+00
 Atom C20      Shell   160 P   1     bf  398 -   400          4.350339433829         40.437678844496         17.643356220354
      0.2888754725D+00  0.1000000000D+01
 Atom C20      Shell   161 P   1     bf  401 -   403          4.350339433829         40.437678844496         17.643356220354
      0.1005682367D+00  0.1000000000D+01
 Atom C20      Shell   162 D   1     bf  404 -   408          4.350339433829         40.437678844496         17.643356220354
      0.1097000000D+01  0.1000000000D+01
 Atom C20      Shell   163 D   1     bf  409 -   413          4.350339433829         40.437678844496         17.643356220354
      0.3180000000D+00  0.1000000000D+01
 Atom C20      Shell   164 F   1     bf  414 -   420          4.350339433829         40.437678844496         17.643356220354
      0.7610000000D+00  0.1000000000D+01
 Atom C21      Shell   165 S   6     bf  421 -   421          8.634951422197         40.437862495214         18.227196247115
      0.1357534968D+05  0.6064550360D-03
      0.2035233368D+04  0.4697908888D-02
      0.4632256236D+03  0.2433247765D-01
      0.1312001960D+03  0.9739996831D-01
      0.4285301589D+02  0.3019558425D+00
      0.1558418577D+02  0.6623360914D+00
 Atom C21      Shell   166 S   2     bf  422 -   422          8.634951422197         40.437862495214         18.227196247115
      0.6206713851D+01  0.6559530854D+00
      0.2576489653D+01  0.3758563329D+00
 Atom C21      Shell   167 S   1     bf  423 -   423          8.634951422197         40.437862495214         18.227196247115
      0.5769633942D+00  0.1000000000D+01
 Atom C21      Shell   168 S   1     bf  424 -   424          8.634951422197         40.437862495214         18.227196247115
      0.2297283136D+00  0.1000000000D+01
 Atom C21      Shell   169 S   1     bf  425 -   425          8.634951422197         40.437862495214         18.227196247115
      0.9516444003D-01  0.1000000000D+01
 Atom C21      Shell   170 P   4     bf  426 -   428          8.634951422197         40.437862495214         18.227196247115
      0.3469723224D+02  0.1132722000D-01
      0.7958262283D+01  0.7616965920D-01
      0.2378082688D+01  0.3019225220D+00
      0.8143320818D+00  0.7278502735D+00
 Atom C21      Shell   171 P   1     bf  429 -   431          8.634951422197         40.437862495214         18.227196247115
      0.2888754725D+00  0.1000000000D+01
 Atom C21      Shell   172 P   1     bf  432 -   434          8.634951422197         40.437862495214         18.227196247115
      0.1005682367D+00  0.1000000000D+01
 Atom C21      Shell   173 D   1     bf  435 -   439          8.634951422197         40.437862495214         18.227196247115
      0.1097000000D+01  0.1000000000D+01
 Atom C21      Shell   174 D   1     bf  440 -   444          8.634951422197         40.437862495214         18.227196247115
      0.3180000000D+00  0.1000000000D+01
 Atom C21      Shell   175 F   1     bf  445 -   451          8.634951422197         40.437862495214         18.227196247115
      0.7610000000D+00  0.1000000000D+01
 Atom C22      Shell   176 S   6     bf  452 -   452         10.978308480129         39.063823666912         19.186860759576
      0.1357534968D+05  0.6064550360D-03
      0.2035233368D+04  0.4697908888D-02
      0.4632256236D+03  0.2433247765D-01
      0.1312001960D+03  0.9739996831D-01
      0.4285301589D+02  0.3019558425D+00
      0.1558418577D+02  0.6623360914D+00
 Atom C22      Shell   177 S   2     bf  453 -   453         10.978308480129         39.063823666912         19.186860759576
      0.6206713851D+01  0.6559530854D+00
      0.2576489653D+01  0.3758563329D+00
 Atom C22      Shell   178 S   1     bf  454 -   454         10.978308480129         39.063823666912         19.186860759576
      0.5769633942D+00  0.1000000000D+01
 Atom C22      Shell   179 S   1     bf  455 -   455         10.978308480129         39.063823666912         19.186860759576
      0.2297283136D+00  0.1000000000D+01
 Atom C22      Shell   180 S   1     bf  456 -   456         10.978308480129         39.063823666912         19.186860759576
      0.9516444003D-01  0.1000000000D+01
 Atom C22      Shell   181 P   4     bf  457 -   459         10.978308480129         39.063823666912         19.186860759576
      0.3469723224D+02  0.1132722000D-01
      0.7958262283D+01  0.7616965920D-01
      0.2378082688D+01  0.3019225220D+00
      0.8143320818D+00  0.7278502735D+00
 Atom C22      Shell   182 P   1     bf  460 -   462         10.978308480129         39.063823666912         19.186860759576
      0.2888754725D+00  0.1000000000D+01
 Atom C22      Shell   183 P   1     bf  463 -   465         10.978308480129         39.063823666912         19.186860759576
      0.1005682367D+00  0.1000000000D+01
 Atom C22      Shell   184 D   1     bf  466 -   470         10.978308480129         39.063823666912         19.186860759576
      0.1097000000D+01  0.1000000000D+01
 Atom C22      Shell   185 D   1     bf  471 -   475         10.978308480129         39.063823666912         19.186860759576
      0.3180000000D+00  0.1000000000D+01
 Atom C22      Shell   186 F   1     bf  476 -   482         10.978308480129         39.063823666912         19.186860759576
      0.7610000000D+00  0.1000000000D+01
 Atom H23      Shell   187 S   3     bf  483 -   483         11.751691650184         37.985326089118         17.604300993306
      0.3406134100D+02  0.2543930721D-01
      0.5123574600D+01  0.1900859489D+00
      0.1164662600D+01  0.8524411301D+00
[...]
 ,0.00000601,0.00024833,-0.00520310,0.00446020,0.00008844,0.00005247,0.
 00006216,0.00000830,0.00002090,0.00000523,0.02551132,-0.00518628,0.005
 01263,-0.00198131,-0.00092740,0.00000144,0.00022429,-0.00011979,-0.000
 31861,0.00003394,-0.00004799,-0.00001714,0.00005104,-0.00002444,0.0000
 4507,0.00002137,-0.00003673,-0.00008263,0.00000177,0.00002033,0.000020
 34,0.00000205,-0.00000098,0.00000665,0.11636497,-0.11776527,0.04205176
 ,-0.12187272,0.11964046,0.00011107,-0.00006283,-0.00008116,0.00042580,
 -0.00020461,0.00013241,0.00004354,0.00002858,-0.00005688,-0.00000622,0
 .00010310,0.00012781,-0.00002437,0.00009504,0.00002627,-0.00012398,0.0
 0014321,0.00006295,0.00001106,-0.00003557,-0.00001922,0.00005786,-0.00
 002766,-0.00000686,-0.00157632,-0.00056900,-0.00243685,0.00082910,-0.0
 0030930,0.00019845,-0.00016693,-0.00047317,-0.00011740,0.00007632,-0.0
 0015257,-0.00000039,0.00000861,0.00000055,-0.00000618,-0.00008468,0.00
 003380,0.00016109,0.00011748,-0.00002671,-0.00017939,-0.00017021,0.000
 08429,-0.00000556,-0.00200821,0.00474663,0.00507013,-0.00005776,-0.000
 04116,0.00000894,0.00002921,0.00002476,-0.00002369,-0.00840958,0.00165
 264,0.00006886,0.00133211,0.00117904,-0.00057960,0.00031912,-0.0005163
 4,-0.00107124,0.00016941,-0.00016976,0.00003502,-0.00017091,-0.0000696
 7,-0.00002338,-0.00002710,0.00001215,0.00004583,0.00000671,-0.00000809
 ,-0.00001254,0.00001147,-0.00001032,-0.00000747,-0.06274048,0.04253474
 ,-0.05707387,0.06892747,-0.04712609,0.04848266,0.00061847,-0.00000670,
 -0.00005067,-0.00033119,-0.00000083,0.00135597,-0.00008230,0.00008887,
 0.00021307,-0.00045916,0.00068080,0.00070510,-0.00012418,-0.00042874,-
 0.00035641,-0.00029185,-0.00049853,-0.00067024,0.00000190,0.00006156,0
 .00019754,0.00001024,0.00013135,0.00011258,-0.00066909,-0.00013054,-0.
 00216707,0.00002452,-0.00040613,0.00001573,-0.00036625,-0.00068289,0.0
 0082851,0.00145862,-0.00091362,-0.00020216,0.00007267,0.00013895,0.000
 11311,0.00064212,0.00050155,0.00058785,0.00008042,-0.00010684,-0.00014
 141,-0.00135467,0.00019416,-0.00028062,0.02539131,-0.03559793,0.012481
 85,-0.00386592,0.00406466,-0.00250149,-0.00019040,0.00049640,-0.001833
 96,-0.01784379,0.02852175,-0.01174818,-0.13447256,-0.05297154,0.009264
 10,0.00497050,0.02302714,-0.00921191,-0.00026866,0.00149521,-0.0004372
 4,0.00018868,0.00179294,-0.00083183,-0.00051310,0.00104087,0.00100154,
 -0.00004497,-0.00025519,-0.00025506,0.00004792,-0.00014289,-0.00033965
 ,-0.05396212,-0.02210854,-0.00000564,-0.00279317,-0.00324114,0.0003515
 9,0.74659121,-0.00073368,0.00012822,0.00035607,-0.00023980,0.00016665,
 -0.00075342,-0.00003458,0.00002490,-0.00004163,0.00014053,-0.00089653,
 -0.00145547,-0.00012892,0.00022165,0.00065216,0.00031489,0.00007458,-0
 .00019436,0.00002741,-0.00002939,-0.00006656,-0.00008412,0.00005701,0.
 00001794,0.00001682,-0.00079134,0.00034052,-0.00040986,0.00045854,0.00
 037538,-0.00045272,0.00071128,-0.00030080,-0.00074274,0.00157444,-0.00
 030829,0.00002780,-0.00010856,-0.00004031,-0.00064986,-0.00033641,-0.0
 0038894,-0.00013617,0.00004242,0.00016689,0.00101326,-0.00096866,0.000
 27730,-0.10512219,-0.02401488,0.00334120,0.00086949,-0.00009469,0.0005
 7072,-0.00031605,-0.00017724,0.00065313,0.04185089,-0.06051193,0.02419
 921,0.02818047,-0.27718606,0.08570711,0.00393511,-0.01418414,0.0078875
 7,-0.00069344,-0.00064109,0.00109724,-0.00118756,-0.00036806,-0.000092
 18,0.00062631,-0.00092437,-0.00056182,0.00000128,0.00017634,0.00008632
 ,-0.00012176,0.00012765,0.00031197,0.02757063,0.06530825,-0.01652311,-
 0.00395508,-0.00013972,0.00173029,0.06661016,0.61057875,0.00072865,0.0
 0001895,0.00036321,0.00003920,-0.00017781,0.00036958,-0.00006239,0.000
 03477,0.00006149,-0.00026518,-0.00082647,-0.00011304,0.00013523,-0.000
 21120,-0.00076133,-0.00009534,-0.00005214,-0.00007782,0.00001322,0.000
 02612,0.00006187,0.00005063,0.00001369,0.00000991,-0.00004144,0.000054
 04,-0.00118959,0.00029662,-0.00022973,-0.00017854,-0.00009022,-0.00048
 540,0.00023000,0.00134784,-0.00002172,-0.00209763,0.00004255,0.0000662
 9,0.00041263,0.00062101,0.00071253,0.00086302,0.00010438,-0.00003255,-
 0.00010099,-0.00165085,0.00042584,-0.00106333,0.03914581,0.01188227,0.
 02455287,-0.00089433,0.00144293,-0.00074628,0.00005874,0.00017361,-0.0
 0049258,-0.01731904,0.02398732,-0.01850173,-0.02071258,0.07151934,-0.1
 0447544,-0.00262402,0.01204574,0.00389843,-0.00083421,0.00166608,-0.00
 079826,0.00130600,0.00078098,0.00013532,-0.00026284,0.00037968,0.00050
 228,0.00002630,-0.00009878,-0.00006321,0.00001664,-0.00001718,-0.00013
 580,-0.01938275,-0.02331461,0.01570923,0.00057922,0.00202196,0.0059142
 2,0.08137235,-0.17433307,0.21004760,0.00006282,0.00004476,0.00005137,-
 0.00002437,-0.00006389,0.00003927,0.00000373,-0.00000577,0.00002802,0.
 00000087,-0.00011138,-0.00001278,0.00001253,-0.00004203,-0.00006659,-0
 .00002152,-0.00001627,-0.00005594,0.00000568,0.00000446,0.00000961,0.0
 0000134,0.00001129,0.00000861,0.00001347,0.00012646,0.00028298,0.00002
 192,0.00001019,-0.00002150,0.00005940,0.00003482,-0.00001765,-0.000062
 21,0.00003284,-0.00003825,0.00001910,-0.00001210,0.00010681,0.00002371
 ,0.00009393,0.00002877,0.00000871,-0.00000658,-0.00001057,-0.00009177,
 -0.00016206,0.00000790,0.00168215,0.00011770,-0.00096792,-0.00001272,-
 0.00022238,0.00048591,0.00010165,0.00008409,0.00006911,0.00039541,0.00
 050555,-0.00013000,0.00132617,-0.00034336,0.00003106,-0.00043507,0.001
 20561,-0.00045603,-0.00002815,0.00010105,0.00011722,0.00052825,0.00038
 390,-0.00020786,0.00002193,-0.00006914,-0.00008034,0.00001576,0.000016
 29,0.00003116,-0.00000043,0.00001042,0.00000649,-0.00192613,0.00334736
 ,-0.00275368,-0.00073486,-0.00070049,0.00008031,-0.28129499,-0.1206615
 8,0.00082295,0.29776224,0.00008970,-0.00002170,0.00007197,-0.00010288,
 0.00005176,0.00003548,-0.00000919,0.00002075,0.00000275,-0.00017472,0.
 00006844,-0.00000461,0.00000246,-0.00004009,-0.00000392,0.00000160,-0.
 00003654,-0.00008475,-0.00000382,-0.00000103,0.00000572,-0.00000724,0.
 00002027,0.00001911,-0.00013167,-0.00011880,-0.00036668,-0.00006027,-0
 .00002414,0.00002980,-0.00002900,-0.00004776,-0.00002601,0.00001843,-0
 .00009331,0.00000821,-0.00000893,0.00003908,0.00001373,0.00004594,-0.0
 0005105,-0.00000835,0.00000302,0.00000170,0.00000606,-0.00001654,0.000
 15352,0.00000491,-0.00144447,-0.00522034,0.00424657,0.00042544,0.00058
 390,-0.00026349,0.00003385,0.00001420,-0.00006273,0.00192210,-0.000941
 55,0.00053637,-0.02590708,-0.00520375,-0.00197049,-0.00079864,-0.00040
 047,-0.00158790,0.00020948,-0.00033525,0.00011590,0.00072169,-0.000248
 24,0.00069711,-0.00016809,0.00011184,0.00015530,0.00000950,-0.00004071
 ,0.00000216,0.00002289,-0.00001610,-0.00004590,0.00258777,-0.00013342,
 0.00281365,0.00073097,0.00052315,-0.00001154,-0.12395962,-0.11798422,0
 .00935430,0.13061063,0.11988058,-0.00007206,-0.00005390,-0.00009860,0.
 00004897,-0.00006144,0.00003603,-0.00002162,0.00002415,-0.00002396,0.0
 0001804,0.00006942,0.00002888,-0.00002725,0.00009614,0.00011073,0.0000
 0863,0.00000787,0.00003726,-0.00000775,-0.00000946,-0.00000785,-0.0000
 0292,-0.00000519,-0.00001204,-0.00001847,-0.00050036,-0.00108092,0.000
 18528,-0.00006851,0.00001844,-0.00016601,-0.00016714,-0.00001700,0.000
 02072,0.00004583,0.00017337,-0.00005561,-0.00002727,-0.00018365,-0.000
 07042,-0.00013309,-0.00001300,-0.00000457,-0.00000114,-0.00001135,0.00
 014468,0.00004313,0.00004917,0.00106425,0.00494997,0.00536351,-0.00046
 449,-0.00027101,0.00014869,0.00000090,0.00005279,-0.00004946,-0.001056
 42,0.00135535,-0.00098479,0.00874165,0.00162743,0.00241357,0.00213485,
 -0.00026391,-0.00213793,0.00018566,-0.00046174,-0.00003888,-0.00073640
 ,-0.00021148,-0.00008527,0.00011377,0.00013015,0.00007567,-0.00005173,
 -0.00002452,-0.00001447,-0.00000595,-0.00003419,-0.00002049,-0.0025319
 7,0.00273310,0.00504412,-0.00046180,-0.00020662,0.00063666,0.00083352,
 0.01078024,-0.03913185,-0.00009402,-0.01278856,0.02900331,-0.00120905,
 -0.00002896,-0.00015955,0.00037686,0.00045836,-0.00215856,0.00016323,-
 0.00005551,-0.00036191,0.00034270,0.00005943,-0.00083494,0.00009538,-0
 .00010969,0.00087993,0.00039295,0.00062405,0.00044928,0.00000661,-0.00
 006707,-0.00024854,-0.00003751,-0.00010459,-0.00007559,0.00048557,0.00
 083836,0.00156943,-0.00006226,0.00059751,0.00022358,-0.00053164,0.0008
 0911,-0.00117260,-0.00161890,0.00100086,0.00141243,-0.00018055,-0.0001
 3924,-0.00044809,-0.00114094,-0.00097831,-0.00183876,-0.00029561,0.000
 14994,0.00039238,0.00293642,0.00010205,0.00052615,-0.10363941,0.000737
 38,-0.01312857,-0.00029938,-0.00040430,0.00206588,0.00004846,0.0000649
 5,0.00035756,0.04888648,-0.09738857,0.04173751,0.06068366,0.09385355,-
 0.02724671,0.00138861,-0.00173146,-0.00266080,-0.00058098,-0.00098887,
 0.00103465,-0.00018189,-0.00068959,-0.00018786,0.00049023,-0.00056401,
 -0.00026626,-0.00006704,0.00008386,0.00005168,-0.00005714,0.00006291,0
 .00022299,-0.30758685,-0.04936965,-0.00675046,-0.01860618,-0.01448900,
 0.00204385,-0.28682365,0.04074811,-0.05327489,-0.01860327,0.01488909,-
 0.00806628,0.66673608,0.00001430,-0.00018202,-0.00012212,-0.00091212,-
 0.00046178,-0.00099689,-0.00008091,-0.00021649,0.00016966,0.00005554,-
 0.00012947,-0.00001831,-0.00004578,-0.00013549,-0.00003135,-0.00012346
 ,0.00019924,0.00045881,-0.00000582,0.00004239,-0.00009413,0.00007334,-
 0.00014038,-0.00001210,0.00189287,-0.00217273,0.00515164,-0.00017819,0
 .00060322,-0.00014421,0.00053075,0.00058489,-0.00053365,0.00046766,-0.
 00069476,-0.00040514,-0.00001437,0.00014775,0.00023211,-0.00034220,-0.
 00069137,-0.00050990,-0.00004881,0.00014719,0.00023101,0.00004281,0.00
 306205,-0.00035140,0.00049678,0.00420205,-0.00377888,0.00114932,-0.000
 46743,-0.00071648,0.00003252,-0.00021651,0.00018601,-0.02641581,-0.027
 89737,0.01040342,0.02269633,-0.02777121,0.01704302,-0.00321012,-0.0021
 6726,0.00445692,-0.00035970,0.00057886,-0.00065582,0.00020724,0.000604
 64,-0.00009007,-0.00000480,0.00019809,0.00047402,-0.00006695,-0.000139
 96,-0.00003021,0.00003096,0.00004250,-0.00008868,-0.12243659,-0.146129
 66,0.01545399,0.01509769,0.00852526,-0.00110303,0.11356080,-0.14587745
 ,0.04770339,-0.01423781,0.00853552,-0.00511734,0.01883671,0.48653566,-
 0.00015153,0.00009451,-0.00008998,-0.00041217,-0.00016715,0.00001223,-
 0.00005974,-0.00004429,0.00006978,0.00005821,0.00024584,-0.00011915,0.
 00000072,0.00022723,0.00011062,0.00007498,-0.00013424,-0.00016793,-0.0
 0000209,0.00000754,0.00003795,-0.00005290,0.00005949,0.00001652,0.0006
 9121,0.00345775,0.00531070,-0.00058943,0.00044661,-0.00032745,0.000857
 24,0.00080564,-0.00008893,-0.00019373,0.00012189,0.00040289,-0.0000199
 8,-0.00006635,-0.00008549,-0.00024095,-0.00014934,-0.00004426,-0.00004
 107,-0.00002672,0.00003471,0.00055527,-0.00076575,-0.00088249,-0.01312
 087,-0.00532957,-0.00901727,0.00032076,-0.00028954,0.00070345,0.000052
 86,-0.00002722,0.00018513,0.01540880,-0.00015598,0.00857872,-0.0009591
 5,0.02588378,-0.00322631,-0.00178140,0.00311243,0.00438901,-0.00097679
 ,0.00055662,-0.00003728,0.00061795,0.00027434,-0.00021966,0.00010686,-
 0.00029609,-0.00026108,0.00002970,0.00008506,0.00004563,-0.00002400,0.
 00002541,0.00010031,0.01829027,0.02463847,-0.07218858,-0.00789214,-0.0
 0349304,0.00312761,-0.07828148,0.03699771,-0.09227489,0.00185948,0.000
 49352,0.00309047,0.06491085,-0.13591267,0.19852013,0.00356110,-0.00001
 653,0.00089557,0.00001472,-0.00014831,-0.00016490,-0.00000936,0.000036
 15,-0.00007780,-0.00512194,-0.00182542,-0.00103791,-0.00495889,0.00184
 293,-0.00199215,0.00045305,-0.00061374,0.00043135,-0.00017683,-0.00016
 241,-0.00005359,0.00004959,0.00001359,-0.00000176,-0.00003224,-0.00004
 785,0.00005426,0.00002991,0.00000622,-0.00000234,0.00001031,0.00000168
 ,-0.00002210,0.00440839,0.02774117,-0.00081205,0.00108421,0.00025787,0
 .00038568,0.00448451,-0.02777426,0.00034291,0.00101815,-0.00021154,0.0
 0073194,-0.04150072,-0.00047212,-0.00185574,0.00026093,0.00002008,0.00
 003725,-0.00003731,0.00016885,0.00013248,-0.00002292,-0.00002974,0.000
 07760,-0.00018394,0.00003830,0.00006549,-0.00014353,-0.00005328,-0.000
 11531,-0.00002744,0.00004334,-0.00005869,0.00000461,0.00000041,0.00002
 248,0.00003038,-0.00000308,0.00001162,0.00050210,0.00056549,-0.0001389
 0,0.00004673,-0.00001634,0.00001359,-0.00016806,0.00014682,-0.00000308
 ,0.00004327,0.00004133,-0.00000109,0.00000127,0.00001910,0.00004830,0.
 00002623,-0.00006277,-0.00006846,0.00001531,-0.00002879,-0.00006076,-0
 .00007018,-0.00006106,-0.00006534,0.03637746,0.00000480,-0.00342345,-0
 .00002216,-0.00036414,-0.00021844,-0.00076303,-0.00002069,0.00010796,-
 0.00028493,0.00597489,0.00531061,0.00053709,-0.00591558,0.00530182,-0.
 00109722,0.00154278,-0.00063119,0.00105805,-0.00025089,-0.00031806,-0.
 00017551,-0.00019535,0.00003622,-0.00017347,0.00000835,-0.00047987,0.0
 0054031,-0.00001698,0.00017634,0.00001307,0.00005796,0.00001358,-0.000
 12502,0.00131523,-0.04129114,0.00141647,-0.00043215,0.00157443,-0.0002
 6621,-0.00154600,-0.04134970,0.00101623,0.00048724,0.00158840,-0.00014
 632,-0.00041466,-0.17810652,0.00357796,0.00012108,0.00004070,-0.000846
 56,0.00055320,-0.00021816,-0.00064071,0.00009594,0.00010844,-0.0002688
 3,0.00004340,-0.00061091,0.00053418,-0.00019066,-0.00062342,0.00051208
 ,-0.00015119,-0.00047716,0.00051930,-0.00002267,0.00001349,-0.00013653
 ,0.00001326,0.00017576,0.00001549,-0.00177014,-0.00062972,0.00060918,0
 .00023560,0.00003595,-0.00011424,0.00029082,-0.00031788,-0.00010358,-0
 .00001725,0.00058639,0.00000538,-0.00008186,-0.00007629,-0.00008044,0.
 00001974,0.00059083,0.00000262,0.00010006,-0.00007922,-0.00005636,-0.0
 0008467,-0.00128650,0.00061475,0.00056944,0.25339713,0.00089119,0.0001
 6507,-0.00288328,-0.00005733,-0.00009646,0.00008890,0.00002943,-0.0000
 2045,-0.00001987,-0.00142487,-0.00036606,0.00594479,-0.00160283,0.0001
 2621,0.00579000,0.00002932,0.00009705,-0.00056406,0.00003268,0.0000369
 2,0.00003937,0.00000634,0.00001490,0.00000460,-0.00004166,0.00001304,-
 0.00001813,0.00001212,-0.00001226,-0.00000113,0.00000089,-0.00000884,0
 .00000535,0.00037770,0.00424446,0.00612542,0.00042129,-0.00008081,-0.0
 0297020,-0.00085673,-0.00333582,0.00611979,0.00071780,-0.00012728,-0.0
 0285106,-0.00190274,0.00404636,-0.02787171,0.00004425,-0.00014425,-0.0
 0000263,0.00002168,-0.00005263,0.00014172,-0.00003025,-0.00002936,-0.0
 0000651,0.00003243,0.00007108,0.00002205,-0.00008597,0.00004647,-0.000
 01226,0.00003869,0.00002606,-0.00002239,-0.00000101,-0.00000884,0.0000
 1117,-0.00000388,-0.00001300,-0.00000159,0.00026761,0.00025757,-0.0006
 1060,0.00000454,0.00001074,0.00000635,-0.00009043,0.00007911,0.0000294
 9,-0.00015309,0.00000379,0.00022250,0.00001604,0.00005579,0.00005823,0
 .00008451,0.00002187,0.00024713,-0.00001948,0.00004378,0.00004043,-0.0
 0005861,0.00043686,0.00025545,0.00331559,-0.00536370,0.01257287,0.0000
 8685,0.00000924,0.00004153,-0.00020101,-0.00036561,0.00021158,-0.00006
 324,-0.00000336,0.00013631,-0.00007898,0.00002398,0.00001508,-0.000051
 96,-0.00004799,-0.00004689,-0.00003619,-0.00008430,-0.00012259,0.00000
 024,0.00000745,0.00003171,-0.00000191,0.00002542,0.00002075,0.00066764
 ,-0.00043454,0.00027417,0.00001752,-0.00000980,-0.00000175,-0.00003239
 ,-0.00004616,-0.00001305,0.00006869,-0.00005039,-0.00003744,0.00000844
 ,0.00000500,0.00002413,0.00007143,0.00007870,0.00006941,0.00001399,-0.
 00001024,-0.00002957,-0.00014261,-0.00007541,-0.00002761,0.00368420,-0
 .00001316,0.00089185,-0.00009489,0.00030672,-0.00019169,-0.00001970,0.
 00000360,-0.00011435,-0.00540437,0.00179682,-0.00201979,-0.00485703,-0
 .00189351,-0.00097495,0.00051509,0.00045002,-0.00001336,-0.00004804,0.
 00004837,-0.00001231,0.00004591,0.00000621,0.00001958,-0.00006505,0.00
 005630,0.00006394,0.00001116,-0.00001213,-0.00001215,0.00000659,-0.000
 00762,-0.00002184,0.00274082,-0.02812621,0.01021857,0.00118915,-0.0001
 2659,0.00056636,0.00562723,0.02379972,-0.00912882,0.00115335,0.0005264
 2,0.00047559,-0.04144081,-0.00664114,0.00102961,0.00003114,0.00004110,
 -0.00001524,0.03659875,-0.00004931,0.00024125,0.00037021,-0.00061801,-
 0.00063270,0.00051696,-0.00012905,0.00002969,0.00030731,-0.00007184,-0
 .00023172,-0.00014639,0.00010989,-0.00023120,-0.00012207,0.00010953,-0
 .00028985,-0.00051262,0.00000310,0.00000460,0.00009176,-0.00009384,0.0
 0013788,0.00006096,0.00169881,-0.00046052,-0.00008145,-0.00019280,0.00
 001488,0.00008508,-0.00014204,-0.00019976,0.00005184,-0.00026141,0.000
 50497,0.00009517,0.00002847,-0.00009186,-0.00006427,0.00022724,0.00050
 878,0.00016089,-0.00001049,-0.00009137,-0.00006883,-0.00001243,-0.0020
 2083,0.00009094,-0.00001174,-0.00317098,0.00020222,0.00045987,-0.00063
 471,0.00066677,0.00004210,0.00003047,0.00033089,-0.00559228,0.00534918
 ,-0.00032731,0.00547775,0.00530239,0.00119195,-0.00162186,-0.00046117,
 -0.00053611,0.00012277,-0.00019978,0.00008868,0.00016242,0.00001722,0.
 00013355,0.00003119,-0.00029040,-0.00052335,0.00007372,0.00013771,0.00
 008321,-0.00002796,0.00000463,0.00008783,-0.00318113,-0.03495732,0.015
 15227,0.00057632,0.00102984,-0.00137095,-0.00097522,-0.03500678,0.0154
 8821,-0.00018657,0.00103298,-0.00145236,-0.00672273,-0.15723147,0.0487
 0937,0.00001446,0.00107956,-0.00013735,0.01076306,0.22077638,0.0000409
 7,-0.00006437,-0.00021133,0.00019874,0.00017549,-0.00017118,0.00004307
 ,-0.00000198,-0.00009995,0.00004790,0.00009082,0.00006578,-0.00008135,
 0.00008151,0.00003920,-0.00004028,0.00009481,0.00014807,0.00000036,0.0
 0000131,-0.00003010,0.00003509,-0.00004617,-0.00001971,-0.00057415,-0.
 00012398,-0.00041507,0.00012205,0.00001086,-0.00001986,-0.00006733,-0.
 00001274,0.00004161,0.00008249,-0.00011689,-0.00004550,-0.00000790,0.0
 0001698,0.00003070,-0.00005101,-0.00010215,-0.00004892,0.00000398,0.00
 001585,0.00002617,-0.00002456,0.00055950,0.00003905,0.00089003,0.00008
 321,-0.00274101,-0.00017849,0.00026861,-0.00028027,-0.00002065,-0.0000
 0134,-0.00014387,0.00099149,0.00060303,0.00593296,-0.00399519,0.000113
 15,0.00538712,0.00083584,-0.00000333,-0.00025954,0.00004090,0.00000092
 ,0.00005654,-0.00010266,0.00001188,-0.00004837,-0.00001850,0.00011422,
 0.00017699,-0.00002635,-0.00005126,-0.00003265,0.00000988,-0.00000077,
 -0.00003632,0.00127975,0.01237052,0.00172159,0.00018423,-0.00152653,-0
 .00245547,-0.00020387,0.01948911,-0.00117647,0.00086560,-0.00143147,-0
 .00235881,0.00106083,0.04831152,-0.04596058,-0.00003412,-0.00030729,0.
 00010981,-0.00130679,-0.07862301,0.04277938\\0.00000108,0.00000105,0.0
 0000081,0.00000045,-0.00000097,0.00000232,0.00000060,-0.00000134,0.000
 00310,0.00000101,0.00000164,-0.00000017,0.00000065,0.00000067,0.000000
 82,0.00000085,-0.00000009,0.00000197,0.00000144,0.00000036,0.00000262,
 0.00000066,-0.00000038,0.00000190,-0.00000037,-0.00000171,0.00000162,-
 0.00000060,-0.00000199,0.00000138,-0.00000059,-0.00000250,0.00000203,0
 .00000043,0.00000163,-0.00000121,0.00000028,0.00000195,-0.00000201,0.0
 0000031,0.00000059,-0.00000013,0.00000007,0.00000012,-0.00000009,0.000
 00017,0.00000113,-0.00000120,-0.00000034,-0.00000074,0.00000059,0.0000
 0071,0.00000103,0.00000021,0.00000099,0.00000122,0.00000043,-0.0000006
 7,-0.00000140,0.00000039,-0.00000051,-0.00000040,-0.00000064,-0.000000
 08,0.00000039,-0.00000057,-0.00000025,-0.00000015,-0.00000040,-0.00000
 021,0.00000076,-0.00000149,0.00000114,0.00000195,-0.00000017,0.0000010
 4,0.00000242,-0.00000103,0.00000173,0.00000243,0.00000046,-0.00000131,
 -0.00000178,-0.00000054,-0.00000161,-0.00000230,-0.00000043,-0.0000011
 9,-0.00000078,-0.00000161,-0.00000140,-0.00000047,-0.00000236,-0.00000
 162,-0.00000150,-0.00000145,-0.00000045,0.00000104,-0.00000240,-0.0000
 0241,-0.00000187,-0.00000272\\\@
 The archive entry for this job was punched.


 LIFE CAN ONLY BE UNDERSTOOD BACKWARD, BUT MUST
 BE LIVED FORWARD. -- KIRKEGAARD
 Job cpu time:       0 days 18 hours  7 minutes 24.8 seconds.
 Elapsed time:       0 days  0 hours 34 minutes 28.7 seconds.
 File lengths (MBytes):  RWF=   1443 Int=      0 D2E=      0 Chk=     70 Scr=      1
 Normal termination of Gaussian 16 at Sat Nov 22 11:27:38 2025.
